[Molden Format]
[Title]
 TDDFT/TDA Dyson orbitals

[Atoms] AU
C       1     6        0.0000000000       -0.0278298077        1.3522902800
O       2     8        0.0000000000        0.1314351760       -1.2852857000
H       3     1        0.0000000000        1.9110314600        2.1498662000
H       4     1        0.0000000000       -1.6374837800       -1.9077845400
H       5     1        1.7293239000       -1.0141188800        2.0226592900
H       6     1       -1.7293239000       -1.0141188800        2.0226592900
[GTO]
   1 0
s    7 1.0
     6665.0000000000        0.3646001904
     1000.0000000000        0.6769763898
      228.0000000000        1.1347960182
       64.7100000000        1.6584653014
       21.0600000000        1.9303634415
        7.4950000000        1.4562924080
        2.7970000000        0.4432682175
s    7 1.0
     6665.0000000000        0.0040657340
      228.0000000000        0.0116283662
       64.7100000000       -0.0419323290
       21.0600000000       -0.0627147144
        7.4950000000       -0.3424015755
        2.7970000000       -0.2027279370
        0.5215000000        0.4808844873
s    1 1.0
        0.1596000000        0.1799636353
p    3 1.0
        9.4390000000        1.3437371097
        2.0020000000        1.0631680896
        0.5456000000        0.5082318340
p    1 1.0
        0.1517000000        0.1349497436
d    1 1.0
        0.5500000000        1.0013935509

   2 0
s    7 1.0
    11720.0000000000        0.5714827111
     1759.0000000000        1.0618229228
      400.8000000000        1.7818232352
      113.7000000000        2.6089776415
       37.0300000000        3.0384180266
       13.2700000000        2.2381455408
        5.0250000000        0.6535152917
s    7 1.0
    11720.0000000000        0.0061737510
      400.8000000000        0.0200134545
      113.7000000000       -0.0736077149
       37.0300000000       -0.1163506438
       13.2700000000       -0.5983622023
        5.0250000000       -0.2542109972
        1.0130000000        0.7887112111
s    1 1.0
        0.3023000000        0.2905619240
p    3 1.0
       17.7000000000        3.2436193465
        3.8540000000        2.5672796533
        1.0460000000        1.1176693238
p    1 1.0
        0.2753000000        0.2842482844
d    1 1.0
        1.1850000000        3.8368709885

   3 0
s    3 1.0
       13.0100000000        0.1635484228
        1.9620000000        0.2774175415
        0.4446000000        0.3157493070
s    1 1.0
        0.1220000000        0.1471227944
p    1 1.0
        0.7270000000        0.9568813751

   4 0
s    3 1.0
       13.0100000000        0.1635484228
        1.9620000000        0.2774175415
        0.4446000000        0.3157493070
s    1 1.0
        0.1220000000        0.1471227944
p    1 1.0
        0.7270000000        0.9568813751

   5 0
s    3 1.0
       13.0100000000        0.1635484228
        1.9620000000        0.2774175415
        0.4446000000        0.3157493070
s    1 1.0
        0.1220000000        0.1471227944
p    1 1.0
        0.7270000000        0.9568813751

   6 0
s    3 1.0
       13.0100000000        0.1635484228
        1.9620000000        0.2774175415
        0.4446000000        0.3157493070
s    1 1.0
        0.1220000000        0.1471227944
p    1 1.0
        0.7270000000        0.9568813751

[5D]
[MO]
 Sym= Dyson_0
 Ene=  3.893458760000E-01
 Spin= Beta
 Occup= 0.954695
    1      0.000000000000
    2      0.000000000000
    3     -0.000000000000
    4      0.205672526250
    5     -0.000000000000
    6      0.000000000000
    7      0.042200452370
    8      0.000000000000
    9     -0.000000000000
   10      0.000000000000
   11      0.038239018797
   12     -0.000000000000
   13      0.000000000000
   14     -0.011184068393
   15      0.000000000000
   16     -0.000000000000
   17      0.000000000000
   18     -0.551763052166
   19      0.000000000000
   20     -0.000000000000
   21     -0.427937715730
   22      0.000000000000
   23      0.000000000000
   24      0.000000000000
   25     -0.004752661900
   26     -0.000000000000
   27      0.000000000000
   28      0.012196053808
   29      0.000000000000
   30      0.000000000000
   31      0.009095456674
   32     -0.000000000000
   33      0.000000000000
   34     -0.000000000000
   35      0.000000000000
   36     -0.028460987674
   37      0.000000000000
   38     -0.000000000000
   39      0.217385556188
   40      0.137101327143
   41     -0.002427034901
   42      0.005834511818
   43     -0.001639597484
   44     -0.217385556188
   45     -0.137101327143
   46     -0.002427034901
   47     -0.005834511818
   48      0.001639597484
 Sym= Dyson_1
 Ene=  4.519997953773E-01
 Spin= Beta
 Occup= 0.955712
    1     -0.008555060266
    2      0.028326037153
    3     -0.014012728570
    4     -0.000000000000
    5      0.320251484424
    6     -0.082234697979
    7      0.000000000000
    8      0.099727809643
    9      0.003359731349
   10      0.006115042803
   11      0.000000000000
   12      0.028910163081
   13     -0.012874781767
   14     -0.000000000000
   15      0.050125011106
   16     -0.104060040598
   17     -0.219318430372
   18     -0.000000000000
   19     -0.347519246704
   20      0.161015375686
   21     -0.000000000000
   22     -0.224075696359
   23      0.142419488384
   24     -0.000673430037
   25     -0.000000000000
   26     -0.001032787450
   27     -0.010806298536
   28     -0.000000000000
   29      0.285533352204
   30      0.138469598980
   31     -0.000000000000
   32     -0.006143352214
   33     -0.008772687135
   34      0.206112306641
   35      0.062710347005
   36     -0.000000000000
   37      0.006518759389
   38      0.013401919904
   39     -0.163621796930
   40     -0.098898812091
   41      0.010205745758
   42      0.007160169201
   43     -0.000088946839
   44     -0.163621796930
   45     -0.098898812091
   46     -0.010205745758
   47      0.007160169201
   48     -0.000088946839
 Sym= Dyson_2
 Ene=  5.425574750825E-01
 Spin= Beta
 Occup= 0.947945
    1      0.017248510507
    2     -0.027903160985
    3     -0.022855906749
    4     -0.000000000000
    5     -0.239219358375
    6     -0.295714405119
    7      0.000000000000
    8     -0.125846393235
    9     -0.105171967047
   10      0.025133075647
   11     -0.000000000000
   12      0.005892083311
   13      0.006034184807
   14      0.000000000000
   15      0.034984367923
   16     -0.067455660045
   17     -0.151370101652
   18     -0.000000000000
   19     -0.175135994064
   20      0.348127645499
   21     -0.000000000000
   22     -0.121330398270
   23      0.206791549562
   24      0.005993073014
   25     -0.000000000000
   26     -0.017797295477
   27     -0.002928402986
   28      0.000000000000
   29     -0.275734789104
   30     -0.083167313488
   31     -0.000000000000
   32      0.016061273057
   33      0.000467733255
   34     -0.012210470898
   35     -0.038768561714
   36     -0.000000000000
   37     -0.008080603683
   38      0.020264989469
   39     -0.006928525569
   40     -0.009609701736
   41      0.000906413601
   42     -0.007044207524
   43     -0.006672842588
   44     -0.006928525569
   45     -0.009609701736
   46     -0.000906413601
   47     -0.007044207524
   48     -0.006672842588
 Sym= Dyson_3
 Ene=  5.838343137502E-01
 Spin= Beta
 Occup= 0.911818
    1      0.000000000000
    2      0.000000000000
    3     -0.000000000000
    4      0.380372008423
    5      0.000000000000
    6     -0.000000000000
    7      0.152761389150
    8      0.000000000000
    9     -0.000000000000
   10      0.000000000000
   11     -0.010882628958
   12     -0.000000000000
   13      0.000000000000
   14     -0.012168965743
   15      0.000000000000
   16     -0.000000000000
   17     -0.000000000000
   18      0.287645341481
   19     -0.000000000000
   20      0.000000000000
   21      0.190851351907
   22     -0.000000000000
   23      0.000000000000
   24     -0.000000000000
   25      0.013235324918
   26     -0.000000000000
   27     -0.000000000000
   28     -0.007928836074
   29      0.000000000000
   30     -0.000000000000
   31      0.012613007520
   32     -0.000000000000
   33     -0.000000000000
   34     -0.000000000000
   35     -0.000000000000
   36      0.014559701827
   37     -0.000000000000
   38     -0.000000000000
   39      0.238240027915
   40      0.087520355773
   41     -0.005606520909
   42      0.009520598271
   43     -0.005777988704
   44     -0.238240027915
   45     -0.087520355773
   46     -0.005606520909
   47     -0.009520598271
   48      0.005777988704
 Sym= Dyson_4
 Ene=  6.332437774154E-01
 Spin= Beta
 Occup= 0.948743
    1      0.024965429483
    2     -0.047941627386
    3     -0.033930820584
    4     -0.000000000000
    5      0.196466104598
    6     -0.208326850856
    7      0.000000000000
    8      0.094107345605
    9     -0.079952750812
   10      0.022218404704
   11      0.000000000000
   12     -0.022038056340
   13     -0.003793254223
   14     -0.000000000000
   15     -0.039494492982
   16      0.089383173776
   17      0.153329926280
   18     -0.000000000000
   19      0.349731478660
   20      0.221280031186
   21     -0.000000000000
   22      0.167702567154
   23      0.083889891172
   24      0.012174653514
   25     -0.000000000000
   26      0.002928919446
   27      0.010247817914
   28      0.000000000000
   29      0.029388742181
   30     -0.001601798690
   31     -0.000000000000
   32      0.000377896715
   33     -0.004556086304
   34     -0.293211396865
   35     -0.081182350848
   36      0.000000000000
   37     -0.024296528549
   38     -0.010886442761
   39     -0.141468554497
   40     -0.033806224173
   41      0.011079507867
   42     -0.000685670344
   43     -0.000853123362
   44     -0.141468554497
   45     -0.033806224173
   46     -0.011079507867
   47     -0.000685670344
   48     -0.000853123362
 Sym= Dyson_5
 Ene=  7.753129820143E-01
 Spin= Beta
 Occup= 0.000002
    1      0.000000000000
    2     -0.000000000000
    3      0.000000000000
    4      0.000306819567
    5     -0.000000000000
    6      0.000000000000
    7      0.000062954079
    8     -0.000000000000
    9     -0.000000000000
   10     -0.000000000000
   11      0.000057044465
   12     -0.000000000000
   13      0.000000000000
   14     -0.000016684246
   15     -0.000000000000
   16      0.000000000000
   17      0.000000000000
   18     -0.000823112858
   19      0.000000000000
   20     -0.000000000000
   21     -0.000638391851
   22      0.000000000000
   23     -0.000000000000
   24      0.000000000000
   25     -0.000007089958
   26     -0.000000000000
   27      0.000000000000
   28      0.000018193913
   29     -0.000000000000
   30     -0.000000000000
   31      0.000013568483
   32      0.000000000000
   33      0.000000000000
   34     -0.000000000000
   35     -0.000000000000
   36     -0.000042457727
   37     -0.000000000000
   38     -0.000000000000
   39      0.000324292911
   40      0.000204525955
   41     -0.000003620619
   42      0.000008703848
   43     -0.000002445930
   44     -0.000324292911
   45     -0.000204525955
   46     -0.000003620619
   47     -0.000008703848
   48      0.000002445930
 Sym= Dyson_6
 Ene=  7.871462637548E-01
 Spin= Beta
 Occup= 0.088731
    1      0.048692409318
    2     -0.102952051757
    3     -0.063715421118
    4     -0.000000000000
    5     -0.006453709685
    6      0.007153229276
    7     -0.000000000000
    8      0.000412451210
    9     -0.000139223471
   10     -0.002152086150
   11     -0.000000000000
   12      0.002367836474
   13      0.000449410911
   14      0.000000000000
   15     -0.015824206416
   16      0.036397663411
   17      0.034948225231
   18      0.000000000000
   19     -0.039969248892
   20     -0.078919015215
   21      0.000000000000
   22     -0.010281661252
   23     -0.040672764459
   24     -0.004358794903
   25      0.000000000000
   26      0.001893844109
   27     -0.001539954920
   28     -0.000000000000
   29     -0.046746108341
   30     -0.005927465404
   31     -0.000000000000
   32      0.005716610867
   33      0.001976020875
   34      0.064282897263
   35      0.013848868470
   36      0.000000000000
   37      0.008062697575
   38      0.000960318807
   39     -0.043986666455
   40     -0.005557091728
   41      0.004521430117
   42     -0.002910008217
   43      0.001727982984
   44     -0.043986666455
   45     -0.005557091728
   46     -0.004521430117
   47     -0.002910008217
   48      0.001727982984
