TDA-TDDFT MeOH ion wb97xd/cc-pVDZ, 6 roots                              
SP        UwB97XD TDA-FC                                              CC-pVDZ             
Number of atoms                            I                6
Info1-9                                    I   N=           9
          17          16           0           0           0         110
           1         118       -5801
Full Title                                 C   N=           4
TDA-TDDFT MeOH ion wb97xd/cc-pVDZ, 6 roots      
Route                                      C   N=          10
#P TDA=(NStates=6) WB97XD/cc-pVDZ SCF=(MaxCycle=2000,XQC) No
Symm Pop=Full GFInput GFPrint Density=Current 5D 7F         
Charge                                     I                1
Multiplicity                               I                2
Number of electrons                        I               17
Number of alpha electrons                  I                9
Number of beta electrons                   I                8
Number of basis functions                  I               48
Number of independent functions            I               48
Number of point charges in /Mol/           I                0
Number of translation vectors              I                0
Atomic numbers                             I   N=           6
           6           8           1           1           1           1
Nuclear charges                            R   N=           6
  6.00000000E+00  8.00000000E+00  1.00000000E+00  1.00000000E+00  1.00000000E+00
  1.00000000E+00
Current cartesian coordinates              R   N=          18
  0.00000000E+00 -2.78298077E-02  1.35229028E+00  0.00000000E+00  1.31435176E-01
 -1.28528570E+00  0.00000000E+00  1.91103146E+00  2.14986620E+00  0.00000000E+00
 -1.63748378E+00 -1.90778454E+00  1.72932390E+00 -1.01411888E+00  2.02265929E+00
 -1.72932390E+00 -1.01411888E+00  2.02265929E+00
Number of symbols in /Mol/                 I                0
Int Atom Types                             I   N=           6
           0           0           0           0           0           0
Force Field                                I                0
Atom Types                                 C   N=           6
                                                            
            
MM charges                                 R   N=           6
  0.00000000E+00  0.00000000E+00  0.00000000E+00  0.00000000E+00  0.00000000E+00
  0.00000000E+00
Integer atomic weights                     I   N=           6
          12          16           1           1           1           1
Real atomic weights                        R   N=           6
  1.20000000E+01  1.59949146E+01  1.00782504E+00  1.00782504E+00  1.00782504E+00
  1.00782504E+00
Atom fragment info                         I   N=           6
           0           0           0           0           0           0
Atom residue num                           I   N=           6
           0           0           0           0           0           0
Nuclear spins                              I   N=           6
           0           0           1           1           1           1
Nuclear ZEff                               R   N=           6
 -3.60000000E+00 -5.60000000E+00 -1.00000000E+00 -1.00000000E+00 -1.00000000E+00
 -1.00000000E+00
Nuclear ZNuc                               R   N=           6
  6.00000000E+00  8.00000000E+00  1.00000000E+00  1.00000000E+00  1.00000000E+00
  1.00000000E+00
Nuclear QMom                               R   N=           6
  0.00000000E+00  0.00000000E+00  0.00000000E+00  0.00000000E+00  0.00000000E+00
  0.00000000E+00
Nuclear GFac                               R   N=           6
  0.00000000E+00  0.00000000E+00  2.79284600E+00  2.79284600E+00  2.79284600E+00
  2.79284600E+00
MicOpt                                     I   N=           6
          -1          -1          -1          -1          -1          -1
Number of residues                         I                0
Number of secondary structures             I                0
Number of contracted shells                I               24
Number of primitive shells                 I               60
Pure/Cartesian d shells                    I                0
Pure/Cartesian f shells                    I                0
Highest angular momentum                   I                2
Largest degree of contraction              I                7
Shell types                                I   N=          24
           0           0           0           1           1          -2
           0           0           0           1           1          -2
           0           0           1           0           0           1
           0           0           1           0           0           1
Number of primitives per shell             I   N=          24
           7           7           1           3           1           1
           7           7           1           3           1           1
           3           1           1           3           1           1
           3           1           1           3           1           1
Shell to atom map                          I   N=          24
           1           1           1           1           1           1
           2           2           2           2           2           2
           3           3           3           4           4           4
           5           5           5           6           6           6
Primitive exponents                        R   N=          60
  6.66500000E+03  1.00000000E+03  2.28000000E+02  6.47100000E+01  2.10600000E+01
  7.49500000E+00  2.79700000E+00  6.66500000E+03  2.28000000E+02  6.47100000E+01
  2.10600000E+01  7.49500000E+00  2.79700000E+00  5.21500000E-01  1.59600000E-01
  9.43900000E+00  2.00200000E+00  5.45600000E-01  1.51700000E-01  5.50000000E-01
  1.17200000E+04  1.75900000E+03  4.00800000E+02  1.13700000E+02  3.70300000E+01
  1.32700000E+01  5.02500000E+00  1.17200000E+04  4.00800000E+02  1.13700000E+02
  3.70300000E+01  1.32700000E+01  5.02500000E+00  1.01300000E+00  3.02300000E-01
  1.77000000E+01  3.85400000E+00  1.04600000E+00  2.75300000E-01  1.18500000E+00
  1.30100000E+01  1.96200000E+00  4.44600000E-01  1.22000000E-01  7.27000000E-01
  1.30100000E+01  1.96200000E+00  4.44600000E-01  1.22000000E-01  7.27000000E-01
  1.30100000E+01  1.96200000E+00  4.44600000E-01  1.22000000E-01  7.27000000E-01
  1.30100000E+01  1.96200000E+00  4.44600000E-01  1.22000000E-01  7.27000000E-01
Contraction coefficients                   R   N=          60
  6.93516317E-04  5.34150243E-03  2.71366714E-02  1.01992385E-01  2.75508636E-01
  4.51086433E-01  2.87565745E-01  7.73354740E-06  2.78072137E-04 -2.57875654E-03
 -8.95087684E-03 -1.06058855E-01 -1.31517686E-01  1.09948660E+00  1.00000000E+00
  5.69792516E-02  3.13207212E-01  7.60376742E-01  1.00000000E+00  1.00000000E+00
  7.11864434E-04  5.48520199E-03  2.79099296E-02  1.05133208E-01  2.84002490E-01
  4.51673946E-01  2.73208126E-01  7.69030046E-06  3.13484579E-04 -2.96614853E-03
 -1.08753543E-02 -1.20753817E-01 -1.06275264E-01  1.09597548E+00  1.00000000E+00
  6.26791663E-02  3.33536566E-01  7.41239642E-01  1.00000000E+00  1.00000000E+00
  3.34987264E-02  2.34800801E-01  8.13682958E-01  1.00000000E+00  1.00000000E+00
  3.34987264E-02  2.34800801E-01  8.13682958E-01  1.00000000E+00  1.00000000E+00
  3.34987264E-02  2.34800801E-01  8.13682958E-01  1.00000000E+00  1.00000000E+00
  3.34987264E-02  2.34800801E-01  8.13682958E-01  1.00000000E+00  1.00000000E+00
Coordinates of each shell                  R   N=          72
  0.00000000E+00 -2.78298077E-02  1.35229028E+00  0.00000000E+00 -2.78298077E-02
  1.35229028E+00  0.00000000E+00 -2.78298077E-02  1.35229028E+00  0.00000000E+00
 -2.78298077E-02  1.35229028E+00  0.00000000E+00 -2.78298077E-02  1.35229028E+00
  0.00000000E+00 -2.78298077E-02  1.35229028E+00  0.00000000E+00  1.31435176E-01
 -1.28528570E+00  0.00000000E+00  1.31435176E-01 -1.28528570E+00  0.00000000E+00
  1.31435176E-01 -1.28528570E+00  0.00000000E+00  1.31435176E-01 -1.28528570E+00
  0.00000000E+00  1.31435176E-01 -1.28528570E+00  0.00000000E+00  1.31435176E-01
 -1.28528570E+00  0.00000000E+00  1.91103146E+00  2.14986620E+00  0.00000000E+00
  1.91103146E+00  2.14986620E+00  0.00000000E+00  1.91103146E+00  2.14986620E+00
  0.00000000E+00 -1.63748378E+00 -1.90778454E+00  0.00000000E+00 -1.63748378E+00
 -1.90778454E+00  0.00000000E+00 -1.63748378E+00 -1.90778454E+00  1.72932390E+00
 -1.01411888E+00  2.02265929E+00  1.72932390E+00 -1.01411888E+00  2.02265929E+00
  1.72932390E+00 -1.01411888E+00  2.02265929E+00 -1.72932390E+00 -1.01411888E+00
  2.02265929E+00 -1.72932390E+00 -1.01411888E+00  2.02265929E+00 -1.72932390E+00
 -1.01411888E+00  2.02265929E+00
Num ILSW                                   I              100
ILSW                                       I   N=         100
           1           0           0           0           2           0
           0           0           0           0        4639          -1
           5           0           0           0           0           0
           0           0           0           0           0           0
           1           1           0           0           0           0
           0           0      100000           0          -1           0
           0           0           0           0           0           0
           0           0           0           1           0           0
           0 -2000000000           1           0           0           0
           0           0         121          52           0           0
           0           0          58           0           0           0
           0           0           0           6           0           1
           0           0           0           0           0           0
           0           0           0           0           0           0
           0           0           0           0           0           0
           0           0           0           0           0           0
           0           0           0           0
Num RLSW                                   I               52
RLSW                                       R   N=          52
  1.00000000E+00  1.00000000E+00  1.00000000E+00  1.00000000E+00  1.00000000E+00
  0.00000000E+00  2.00000000E-01  2.22036000E-01  0.00000000E+00  7.77964000E-01
  0.00000000E+00  2.00000000E-01  0.00000000E+00  0.00000000E+00  1.00000000E+00
  0.00000000E+00  0.00000000E+00  1.00000000E+00  0.00000000E+00  0.00000000E+00
  0.00000000E+00  0.00000000E+00  1.00000000E+00  0.00000000E+00  0.00000000E+00
  0.00000000E+00  0.00000000E+00  1.00000000E+00  0.00000000E+00  0.00000000E+00
  0.00000000E+00  0.00000000E+00  1.00000000E+00  0.00000000E+00  0.00000000E+00
  0.00000000E+00  0.00000000E+00  0.00000000E+00  1.00000000E+00  1.00000000E+00
  0.00000000E+00  1.00000000E+00  0.00000000E+00  0.00000000E+00  0.00000000E+00
  0.00000000E+00  0.00000000E+00  0.00000000E+00  0.00000000E+00  0.00000000E+00
  0.00000000E+00  0.00000000E+00
MxBond                                     I                4
NBond                                      I   N=           6
           4           2           1           1           1           1
IBond                                      I   N=          24
           2           3           5           6           1           4
           0           0           1           0           0           0
           2           0           0           0           1           0
           0           0           1           0           0           0
RBond                                      R   N=          24
  1.00000000E+00  1.00000000E+00  1.00000000E+00  1.00000000E+00  1.00000000E+00
  1.00000000E+00  0.00000000E+00  0.00000000E+00  1.00000000E+00  0.00000000E+00
  0.00000000E+00  0.00000000E+00  1.00000000E+00  0.00000000E+00  0.00000000E+00
  0.00000000E+00  1.00000000E+00  0.00000000E+00  0.00000000E+00  0.00000000E+00
  1.00000000E+00  0.00000000E+00  0.00000000E+00  0.00000000E+00
Virial Ratio                               R      2.006372150067206E+00
SCF Energy                                 R     -1.152961422909941E+02
CIS Energy                                 R     -1.152334891451682E+02
Total Energy                               R     -1.152334891451682E+02
Post-SCF wavefunction norm                 R      1.000000000000000E+00
S**2                                       R      7.540615122027008E-01
S**2 after annihilation                    R      7.500123116887278E-01
RMS Density                                R      4.565820421563166E-09
Job Status                                 I                1
Nuclear derivative order                   I                0
External E-field                           R   N=          35
  0.00000000E+00  0.00000000E+00  0.00000000E+00  0.00000000E+00  0.00000000E+00
  0.00000000E+00  0.00000000E+00  0.00000000E+00  0.00000000E+00  0.00000000E+00
  0.00000000E+00  0.00000000E+00  0.00000000E+00  0.00000000E+00  0.00000000E+00
  0.00000000E+00  0.00000000E+00  0.00000000E+00  0.00000000E+00  0.00000000E+00
  0.00000000E+00  0.00000000E+00  0.00000000E+00  0.00000000E+00  0.00000000E+00
  0.00000000E+00  0.00000000E+00  0.00000000E+00  0.00000000E+00  0.00000000E+00
  0.00000000E+00  0.00000000E+00  0.00000000E+00  0.00000000E+00  0.00000000E+00
IOpCl                                      I                1
IROHF                                      I                0
Alpha Orbital Energies                     R   N=          48
 -1.97188129E+01 -1.06457608E+01 -1.53865997E+00 -1.10403963E+00 -9.54294267E-01
 -9.02542711E-01 -8.62712606E-01 -7.52545645E-01 -7.43909280E-01 -1.37692027E-01
 -5.79091035E-02 -2.85217070E-02 -2.40568573E-02 -1.15484486E-02  2.60380378E-01
  2.68009849E-01  2.93934644E-01  3.47536451E-01  4.45522625E-01  4.49617353E-01
  4.70719954E-01  6.24221142E-01  6.31479431E-01  7.53014035E-01  7.65475397E-01
  8.08407047E-01  9.63377049E-01  1.07970107E+00  1.17415983E+00  1.19581986E+00
  1.37287006E+00  1.40361735E+00  1.43271329E+00  1.43395425E+00  1.49954869E+00
  1.63324780E+00  1.73638386E+00  1.81303149E+00  1.85790416E+00  1.90417785E+00
  2.16263483E+00  2.18400041E+00  2.21036664E+00  2.58418419E+00  2.67759030E+00
  2.75142244E+00  2.88064851E+00  3.34466964E+00
Beta Orbital Energies                      R   N=          48
 -1.96996401E+01 -1.06451159E+01 -1.48765114E+00 -1.08544445E+00 -9.32505819E-01
 -8.44876996E-01 -8.15357709E-01 -7.32914917E-01 -4.31894441E-01 -1.30508751E-01
 -5.19687753E-02 -2.26915634E-02 -1.46083678E-02 -6.98808048E-03  2.65813875E-01
  2.84481130E-01  2.95275423E-01  3.52129131E-01  4.55676253E-01  4.63986776E-01
  4.72669420E-01  6.40627987E-01  6.69569574E-01  7.57406563E-01  7.75055769E-01
  8.35903979E-01  9.69896577E-01  1.09445319E+00  1.17929829E+00  1.20776317E+00
  1.38490172E+00  1.41405211E+00  1.43736694E+00  1.44680406E+00  1.51967357E+00
  1.64061742E+00  1.74473486E+00  1.82768067E+00  1.86635992E+00  1.91489412E+00
  2.17722112E+00  2.19684365E+00  2.21116628E+00  2.64066415E+00  2.73132903E+00
  2.79684080E+00  2.90752195E+00  3.36539719E+00
Alpha MO coefficients                      R   N=        2304
 -4.12374721E-05 -1.29924536E-04  5.78383685E-03  1.97722800E-16  1.38271571E-05
 -5.70750206E-04 -1.44487632E-15  2.33309888E-04 -2.53823737E-03 -1.99422233E-04
 -7.74272731E-16  1.61789186E-04  4.20501332E-06 -5.24245696E-16  9.96509904E-01
  2.27239515E-02 -1.14541684E-02 -1.69118678E-17 -1.43379309E-03  9.94000151E-04
  7.28448261E-17  8.72607156E-04 -3.01806408E-03 -3.43127553E-04 -7.80447993E-16
  2.05128907E-04  5.48631703E-05  2.99470197E-16 -7.34384855E-04 -4.23786108E-04
  3.93241884E-16  1.41873119E-04  2.82495224E-04  2.65700607E-04  2.04869587E-04
  1.68487094E-17 -9.50130976E-04 -1.00123636E-04 -6.35312740E-04 -2.74898435E-04
  5.88366763E-05 -7.38535949E-05  2.76057229E-04 -6.35312740E-04 -2.74898435E-04
 -5.88366763E-05 -7.38535949E-05  2.76057229E-04  9.96416078E-01  2.86205106E-02
 -1.21911167E-02 -3.47796973E-16 -2.79875638E-04 -5.74879475E-04 -1.68283706E-15
  2.21649973E-04 -8.58870464E-04 -2.15688455E-04 -2.95680973E-16  5.56958369E-05
  2.01588725E-04  6.08722077E-16  8.26390666E-05  7.77734793E-04 -1.83316186E-03
 -9.12335938E-17  5.05872187E-05 -9.84500139E-05  3.23527698E-16  8.16401364E-04
 -1.66517113E-03 -8.62212386E-04 -3.23796217E-16  1.13311659E-04  2.17084353E-04
 -6.66309477E-16 -1.15008539E-03  2.06561121E-03 -1.69818471E-17  1.38465580E-03
  6.38354136E-04  7.78285500E-04  4.28488710E-04 -3.28558406E-16  1.62273627E-04
  6.74029806E-04 -1.28252463E-03  2.28201929E-03  1.29494109E-03 -8.07386244E-04
  5.95077769E-04 -1.28252463E-03  2.28201929E-03 -1.29494109E-03 -8.07386244E-04
  5.95077769E-04 -6.18663018E-02  1.20545472E-01  1.96965833E-02  3.80477858E-16
 -1.87996103E-03 -1.07667851E-01 -1.88415454E-15 -7.02198609E-03 -7.45625253E-03
  2.87020925E-02  2.27113886E-16  2.58030040E-03  1.06392554E-03 -3.08769657E-16
 -2.08609855E-01  4.62429626E-01  4.11625897E-01 -3.63837847E-16 -8.72378335E-02
  7.03707679E-02  4.64178628E-16 -1.04209026E-02  3.98730081E-02  1.85154564E-03
  2.37737038E-16 -6.79965804E-04  3.97006761E-03  7.90617422E-17  2.59369429E-02
  3.42255612E-03  2.34375985E-16 -4.67702476E-03 -4.81883766E-03  1.56801352E-01
 -5.78255385E-03  3.00341839E-17  3.35721370E-02  1.49043923E-02  2.90190014E-02
  1.96410134E-03 -5.69213175E-03  3.12437742E-03 -4.75170695E-03  2.90190014E-02
  1.96410134E-03  5.69213175E-03  3.12437742E-03 -4.75170695E-03 -1.66743672E-01
  3.56689753E-01  2.21693844E-01 -6.92471772E-16  1.20288626E-02 -1.66768945E-02
 -6.18164013E-15 -2.72925491E-03  5.98700251E-03  8.60299106E-03  2.79294713E-16
 -7.18834539E-03  1.68629038E-03  9.85289836E-16  5.05925278E-02 -1.25329658E-01
 -1.12766315E-01  1.07165473E-15  1.35738394E-01  2.89401856E-01  1.72102916E-15
  3.36492472E-02  1.34115768E-01  1.71413712E-02  4.49540009E-16 -7.20853507E-03
  2.26324434E-03 -6.45124810E-17  1.50045112E-01  7.88950781E-03 -3.58527048E-17
 -1.99802858E-02 -6.53599999E-03 -1.90573185E-01 -1.02328981E-02 -8.44165688E-17
 -2.93880516E-02 -4.76994878E-03  1.60842417E-01  4.82103841E-03 -1.74294535E-02
  1.10325895E-02 -6.62673779E-03  1.60842417E-01  4.82103841E-03  1.74294535E-02
  1.10325895E-02 -6.62673779E-03  5.73441239E-02 -1.17030818E-01 -1.18072370E-01
  1.13948697E-15  1.61667380E-01 -1.90955569E-01  7.44403261E-17  7.35872041E-02
 -4.14908107E-02  2.11686458E-02 -4.88548970E-16 -2.53078174E-02 -2.55809574E-03
  7.89762233E-17 -5.13462699E-02  1.24162267E-01  1.93908806E-01  3.28970458E-16
  4.18644853E-01  2.04008444E-01  1.60682179E-16  1.84804042E-01  7.96145942E-02
  1.00037611E-02 -5.19883149E-17  4.21556669E-03  1.42555823E-02 -3.07825977E-16
 -2.22472086E-02 -1.49003943E-02  6.71127695E-16  4.15655559E-03 -1.46034646E-03
 -2.81226048E-01 -2.97734777E-02 -8.00826535E-17 -3.02500511E-02 -1.63187853E-02
 -1.59326727E-01 -1.31466081E-02  1.51803588E-02 -4.52065272E-03  8.24662400E-04
 -1.59326727E-01 -1.31466081E-02 -1.51803588E-02 -4.52065272E-03  8.24662400E-04
 -7.69674043E-16 -7.19768035E-15  2.99529335E-14  2.82610567E-01  9.87354852E-16
  7.54728935E-17  9.83743850E-02  4.45076484E-17 -1.19030521E-15 -1.86595176E-17
 -2.62329400E-02  1.00968812E-16 -9.32741633E-17 -9.44789836E-03  1.36492014E-16
  5.93812402E-16 -4.60579039E-15  5.55529598E-01 -7.48106725E-16 -1.04459451E-15
  3.17537792E-01 -2.12919208E-15 -6.49274470E-15 -2.70741067E-16  1.57485906E-02
  1.15800641E-16 -2.37020423E-16 -1.47323459E-02 -1.52656076E-15 -6.55000485E-15
  8.60452699E-03  9.59239322E-16  4.13310663E-16 -7.84696317E-16 -3.71053347E-15
  2.14980804E-02 -6.01452227E-16 -7.16449412E-18  1.59899669E-01  2.43708714E-02
 -5.75408671E-03  8.87293834E-03 -4.79470264E-03 -1.59899669E-01 -2.43708714E-02
 -5.75408671E-03 -8.87293834E-03  4.79470264E-03  2.62283745E-02 -4.96489770E-02
 -7.95903969E-02  1.32253009E-15 -1.41646150E-01 -3.04372914E-01 -1.55483811E-15
 -8.22339937E-02 -8.34030436E-02  3.41827017E-02 -2.55953759E-16  1.62370598E-02
  1.44057430E-03 -1.92128998E-16  4.18621329E-02 -9.04542181E-02 -1.68472549E-01
  4.07428195E-16 -2.88689502E-01  4.42541964E-01  3.82362681E-16 -1.61875534E-01
  2.34800122E-01  6.82418156E-03  3.20321072E-16 -2.00789336E-02 -8.82503868E-03
 -2.58569883E-16 -1.88875053E-01 -1.51260319E-02 -4.57475314E-17  1.59307115E-02
 -1.62128194E-04  3.77063033E-02 -1.61296657E-02 -7.13065943E-17 -3.62537869E-03
  2.55169348E-02 -6.41517536E-02 -2.01381862E-02  4.55433406E-03 -6.44773800E-03
 -4.80124681E-03 -6.41517536E-02 -2.01381862E-02 -4.55433406E-03 -6.44773800E-03
 -4.80124681E-03  9.02672789E-16  8.72005384E-17 -5.88127577E-15 -3.80176748E-01
 -2.07415015E-14 -2.00153093E-16 -1.54332709E-01 -1.64190415E-14 -2.86341465E-15
  4.90626873E-16 -2.26495700E-02 -1.67687868E-15  1.22312687E-15  1.72958022E-02
 -1.59843554E-15  3.80908259E-15  6.14954163E-15  4.38640066E-01  1.38296904E-14
 -3.53469837E-15  2.76965730E-01  9.10040440E-15 -3.39201961E-15 -7.73205642E-17
 -3.12846736E-03 -2.07706429E-16  6.86802693E-16 -9.16824974E-03 -1.49898455E-14
  3.53681561E-15 -1.14852687E-02 -1.75896091E-16 -1.62580151E-16 -8.50516617E-15
 -6.21836746E-16  1.74154685E-02 -1.53873676E-16 -4.13883262E-16 -3.04792668E-01
 -7.17139568E-02  7.35944805E-03 -1.18330609E-02  8.90179772E-03  3.04792668E-01
  7.17139568E-02  7.35944805E-03  1.18330609E-02 -8.90179772E-03 -1.06197538E-02
  3.06081068E-02  7.19534690E-03 -1.99676998E-14  4.35490454E-01 -6.75737721E-03
 -1.34089171E-14  1.83316283E-01  2.56199928E-02  4.78207749E-03 -2.28735570E-15
  1.77006973E-02 -1.28916299E-02  1.98912293E-15  3.08357474E-02 -7.00920288E-02
 -1.35414421E-01  2.13449314E-14 -2.75709376E-01  8.52619791E-02  1.39855139E-14
 -1.47478026E-01  7.09199411E-02 -3.61110732E-04 -1.82722028E-16  5.88463002E-03
 -1.06651618E-02 -4.44021960E-16  3.46883250E-01  7.25237226E-02  1.60494386E-16
 -1.41206251E-02 -1.14810089E-02  1.70507523E-01  3.54397863E-02  1.13539737E-15
  1.25436402E-02  7.90105106E-03 -1.81919273E-01 -5.01925045E-02  1.25794901E-02
  8.24285930E-03  5.03956748E-03 -1.81919273E-01 -5.01925045E-02 -1.25794901E-02
  8.24285930E-03  5.03956748E-03  1.20773376E-02 -1.61427752E-02 -3.57768388E-01
 -4.82572597E-16  6.12373022E-02 -2.05125774E-01 -6.12964097E-15  7.59668267E-02
 -3.57305394E-01 -3.05663943E-02 -1.03500556E-16 -1.07535106E-02 -6.45097296E-03
 -4.90608658E-16  8.21279691E-02 -1.83153923E-01 -7.24592081E-01  3.26676388E-17
  2.68604427E-01 -1.72678035E-02  3.35858681E-16  2.85288260E-01  2.20920513E-02
  3.83270311E-03 -8.00706944E-17  1.13318859E-02 -5.39222560E-03  5.30798671E-17
  1.07562664E-02  1.06839455E-01 -1.81466514E-16  6.63368074E-03 -1.21137250E-02
  2.83707147E-01  9.29597839E-01  2.82060249E-16 -2.09192422E-02 -1.05868687E-02
  2.11499929E-02  2.48346351E-01  8.49130118E-03 -6.27012612E-03 -1.40661768E-02
  2.11499929E-02  2.48346351E-01 -8.49130118E-03 -6.27012612E-03 -1.40661768E-02
 -1.38061911E-01  2.91689895E-01  1.86269037E+00 -4.74350656E-14 -8.56403540E-02
 -6.52344911E-02 -1.62158618E-13 -1.88221734E-01 -1.27206413E-02 -1.61836633E-02
  1.35320917E-15  6.42807677E-03 -1.04991720E-02 -1.80738840E-15  3.97200249E-02
 -8.28507247E-02 -3.83444391E-01  7.87330204E-15  7.63478205E-02 -1.78896694E-01
  2.05976242E-14  8.19586839E-02 -2.40143410E-01  1.59059918E-02 -1.84167633E-15
  1.38996424E-03 -3.05021800E-03 -7.51534574E-16 -3.82379271E-02 -5.02375160E-01
  2.27912463E-16  4.06501041E-05 -1.00779981E-02  4.79208303E-02  1.86087307E-01
  1.62930493E-15  1.10427461E-03 -1.50967854E-02 -1.00786162E-01 -9.85844844E-01
 -1.17806377E-02  1.92475896E-03 -1.47666523E-02 -1.00786162E-01 -9.85844844E-01
  1.17806377E-02  1.92475896E-03 -1.47666523E-02  1.30505302E-02 -2.93972005E-02
 -5.54100568E-05 -3.66614840E-13  1.40257309E-01  4.09909747E-01 -9.48250665E-13
  3.32663252E-01  1.08661928E+00  4.03807609E-02  2.50415424E-14 -3.00517432E-02
  5.94464992E-03 -3.10765087E-14 -3.08390427E-02  5.33416491E-02  3.85587383E-01
  5.38661262E-14  1.31042810E-01  3.47196537E-01  1.21528078E-13  1.48807385E-01
  5.26439948E-01 -7.83272886E-03 -1.31119928E-14  9.65156238E-03 -4.67086214E-03
 -6.13949903E-15 -1.40054244E-01 -9.29842861E-01 -1.22868484E-14 -2.03577913E-02
  1.12419812E-02  2.09720788E-01  7.71899284E-01  1.52214347E-14 -1.99983653E-02
 -6.74026956E-03 -2.57047303E-02 -8.38966817E-02 -9.34132023E-03  6.09985340E-03
  2.33347459E-02 -2.57047303E-02 -8.38966817E-02  9.34132023E-03  6.09985340E-03
  2.33347459E-02 -7.19375067E-15 -2.03116668E-14  1.77339124E-14 -4.52687248E-01
  2.39205364E-14 -3.75740173E-13 -1.12837117E+00  1.61241796E-13 -1.00254423E-12
 -3.96641500E-14  3.22678589E-02  1.79095858E-14  1.03804385E-14 -4.08318327E-02
  2.65818109E-14 -3.97355489E-14 -3.54845454E-13  6.56817035E-02 -1.63105801E-13
 -3.21520338E-13  1.44270511E-01 -2.06235265E-13 -4.90397243E-13  5.97925520E-15
 -1.65014516E-02 -4.00019556E-15  6.28027567E-15 -7.32900909E-03  4.01043127E-14
  2.12264096E-13 -1.58982032E-02  1.98920861E-14 -9.16144722E-15 -1.94526055E-13
 -7.74693070E-13  1.90016219E-02  2.37971082E-14 -4.77842776E-16  1.67918855E-01
  1.47338346E+00  1.43002372E-02 -2.16326302E-02  5.61973665E-03 -1.67918855E-01
 -1.47338346E+00  1.43002372E-02  2.16326302E-02 -5.61973665E-03  3.24111467E-02
 -8.39516463E-02 -3.93072213E-01 -1.63165121E-13 -3.85341633E-01  1.45576178E-01
 -3.68454808E-13 -1.09604448E+00  3.22577052E-01  2.19362444E-02  1.41721535E-14
  3.33039770E-02 -5.39455828E-02 -1.98913634E-14 -1.66130131E-02  3.32377169E-02
  1.71631047E-01  2.30373484E-14  1.24296642E-01  1.53251512E-01  4.58026917E-14
  2.26688003E-01  2.45778177E-01 -6.66598700E-03 -5.96493555E-15 -1.42053822E-02
 -4.47076360E-03 -2.53629852E-15  1.93022367E-01  1.61631659E+00 -5.84890209E-15
  1.64544793E-02  1.38325238E-02  6.57254061E-02  3.22108112E-01  7.55985934E-15
 -1.08442804E-02  2.52840582E-02 -1.36125578E-01 -7.12315739E-01 -2.47186280E-02
 -8.24414279E-03  8.14259682E-03 -1.36125578E-01 -7.12315739E-01  2.47186280E-02
 -8.24414279E-03  8.14259682E-03  1.27105064E-02 -1.52026864E-01  1.96222992E-01
  4.17547472E-14 -2.43553373E-01  2.45763758E-01 -1.85870041E-13  7.90640573E-01
 -4.22511291E-01  2.25218934E-02  8.50956391E-15 -1.02246968E-01  1.46924091E-01
 -2.28258517E-14  1.54064454E-02 -3.57476378E-02 -2.37796769E-01  3.91584437E-14
 -1.62889799E-02  1.70718685E-01  1.62753455E-14 -9.19469858E-02 -6.85644602E-02
 -3.41835664E-02 -2.35295446E-15  2.87099390E-02 -2.07616223E-02 -1.17787939E-15
 -6.13012011E-01  4.32621458E-01 -1.03925574E-14 -2.44965100E-02 -6.55439404E-03
  3.83730077E-01 -2.43663740E-01 -8.38262236E-16 -3.84574842E-02 -5.40090090E-02
  4.16640734E-01 -2.31738710E-01  3.63996965E-02  4.62091024E-02  2.03104709E-02
  4.16640734E-01 -2.31738710E-01 -3.63996965E-02  4.62091024E-02  2.03104709E-02
  2.49217161E-15 -2.03851048E-14  1.27606253E-14 -2.16271135E-01 -2.97104235E-14
  6.64723047E-14  1.01926304E+00  1.01947112E-13 -1.16239957E-13  6.19317004E-15
 -5.78784205E-02 -1.78670983E-14  2.51876145E-14  1.73770436E-01  2.26408303E-15
 -4.48818628E-16 -5.80461845E-14 -2.26772106E-01 -6.25535716E-15  3.08780842E-14
 -9.39391948E-02 -3.79907771E-15 -1.05318682E-14 -7.58993811E-15  1.43446726E-02
  4.62675934E-15 -3.08955935E-15  9.56985322E-03 -9.25091427E-14  9.23156557E-14
  7.00718614E-02 -7.85345640E-15 -3.09025076E-15  7.15991946E-14 -5.68080969E-14
 -1.74373764E-03 -4.14951259E-15 -6.06594112E-15 -6.74263231E-01  2.72623804E-01
  7.46539369E-03  4.56166819E-02 -1.75366333E-02  6.74263231E-01 -2.72623804E-01
  7.46539369E-03 -4.56166819E-02  1.75366333E-02 -1.69550447E-02  4.21841820E-01
 -6.09793290E-01 -2.23185613E-14 -1.24989119E-01 -8.01732078E-01  5.13275545E-14
  4.98984933E-01  1.46031174E+00 -6.51349787E-02  7.39030491E-16 -2.30195373E-02
  6.56277045E-02  2.25804341E-15  3.23328880E-03 -1.41355989E-01  6.82378580E-01
 -5.83025833E-15 -1.67417974E-02 -1.80865808E-01 -4.35888405E-15 -1.57463056E-01
  1.83852971E-01  7.74364631E-02  7.22383094E-17  2.74450681E-03  3.23118359E-03
 -2.31246466E-17 -3.67354881E-01 -4.18538513E-03  1.37373809E-15  8.46726007E-03
 -6.53365846E-03 -2.27643669E-01  6.29654225E-01  2.42572764E-16  2.33482939E-02
 -1.25264088E-01  1.94513786E-02 -7.07517069E-02  2.01629038E-02  1.42187848E-02
 -2.00247867E-02  1.94513786E-02 -7.07517069E-02 -2.01629038E-02  1.42187848E-02
 -2.00247867E-02  6.23769074E-03  2.56274720E-02 -1.00496076E-01  5.24122246E-15
 -3.20148653E-01  2.59988996E-01 -9.94009360E-15  9.91599547E-01 -1.98366578E-01
  1.05315220E-01 -1.35655569E-15  1.17938351E-01  2.66530194E-02  2.24324698E-15
 -1.25725664E-02  1.19964795E-01 -3.89000975E-01 -4.89200932E-16 -3.33262749E-01
  1.16955347E-01  1.40354784E-15 -1.01621779E-01 -1.62410618E-01 -3.74866852E-03
  2.79444015E-16 -5.72942732E-02  7.55101177E-02  3.15743535E-17 -8.12699477E-02
 -5.74014919E-01  2.77732478E-16  1.86212058E-02  5.25956279E-02 -1.04626659E+00
  1.11791874E+00 -2.44735142E-16  1.58215634E-01  5.41516374E-02 -1.84142688E-02
  3.06943424E-01 -3.92771283E-02  3.58858850E-02 -2.80829423E-02 -1.84142688E-02
  3.06943424E-01  3.92771283E-02  3.58858850E-02 -2.80829423E-02 -3.79715158E-14
  3.51091053E-13 -5.43801602E-13 -8.59949863E-01 -1.28383861E-13  1.33338847E-13
  2.08141941E+00  2.86850833E-13 -2.85935845E-13  6.78605289E-14  1.95007484E-01
  3.91991803E-15 -3.29281842E-14 -1.76811622E-01  1.49556409E-14 -9.82164296E-14
 -8.35367643E-15 -3.92080455E-03  3.52409963E-14 -5.03066810E-14 -1.58857709E-01
 -4.21059798E-14 -6.87177921E-14 -8.35493765E-15 -2.38769432E-02  7.25557534E-15
 -1.28441186E-14  7.86155296E-03 -2.64650565E-13  5.77735345E-14 -2.43711702E-02
 -5.63627081E-14 -5.75435831E-15  1.60181922E-13 -3.06866446E-13  5.58982132E-03
 -3.97071549E-14  5.13887876E-15  2.72399310E-01 -1.76581395E+00  1.39131752E-01