 Entering Gaussian System, Link 0=g16
 Input=MeOH_n.in
 Output=MeOH_n.log
 Initial command:
 /home/jianhua/gaussian_gpu/g16/l1.exe "/home/guest/scratch/Gau-1646398.inp" -scrdir="/home/guest/scratch/"
 Entering Link 1 = /home/jianhua/gaussian_gpu/g16/l1.exe PID=   1646400.
  
 Copyright (c) 1988-2021, Gaussian, Inc.  All Rights Reserved.
  
 This is part of the Gaussian(R) 16 program.  It is based on
 the Gaussian(R) 09 system (copyright 2009, Gaussian, Inc.),
 the Gaussian(R) 03 system (copyright 2003, Gaussian, Inc.),
 the Gaussian(R) 98 system (copyright 1998, Gaussian, Inc.),
 the Gaussian(R) 94 system (copyright 1995, Gaussian, Inc.),
 the Gaussian 92(TM) system (copyright 1992, Gaussian, Inc.),
 the Gaussian 90(TM) system (copyright 1990, Gaussian, Inc.),
 the Gaussian 88(TM) system (copyright 1988, Gaussian, Inc.),
 the Gaussian 86(TM) system (copyright 1986, Carnegie Mellon
 University), and the Gaussian 82(TM) system (copyright 1983,
 Carnegie Mellon University). Gaussian is a federally registered
 trademark of Gaussian, Inc.
  
 This software contains proprietary and confidential information,
 including trade secrets, belonging to Gaussian, Inc.
  
 This software is provided under written license and may be
 used, copied, transmitted, or stored only in accord with that
 written license.
  
 The following legend is applicable only to US Government
 contracts under FAR:
  
                    RESTRICTED RIGHTS LEGEND
  
 Use, reproduction and disclosure by the US Government is
 subject to restrictions as set forth in subparagraphs (a)
 and (c) of the Commercial Computer Software - Restricted
 Rights clause in FAR 52.227-19.
  
 Gaussian, Inc.
 340 Quinnipiac St., Bldg. 40, Wallingford CT 06492
  
  
 ---------------------------------------------------------------
 Warning -- This program may not be used in any manner that
 competes with the business of Gaussian, Inc. or will provide
 assistance to any competitor of Gaussian, Inc.  The licensee
 of this program is prohibited from giving any competitor of
 Gaussian, Inc. access to this program.  By using this program,
 the user acknowledges that Gaussian, Inc. is engaged in the
 business of creating and licensing software in the field of
 computational chemistry and represents and warrants to the
 licensee that it is not a competitor of Gaussian, Inc. and that
 it will not use this program in any manner prohibited above.
 ---------------------------------------------------------------
  

 Cite this work as:
 Gaussian 16, Revision C.02,
 M. J. Frisch, G. W. Trucks, H. B. Schlegel, G. E. Scuseria, 
 M. A. Robb, J. R. Cheeseman, G. Scalmani, V. Barone, 
 G. A. Petersson, H. Nakatsuji, X. Li, M. Caricato, A. V. Marenich, 
 J. Bloino, B. G. Janesko, R. Gomperts, B. Mennucci, H. P. Hratchian, 
 J. V. Ortiz, A. F. Izmaylov, J. L. Sonnenberg, D. Williams-Young, 
 F. Ding, F. Lipparini, F. Egidi, J. Goings, B. Peng, A. Petrone, 
 T. Henderson, D. Ranasinghe, V. G. Zakrzewski, J. Gao, N. Rega, 
 G. Zheng, W. Liang, M. Hada, M. Ehara, K. Toyota, R. Fukuda, 
 J. Hasegawa, M. Ishida, T. Nakajima, Y. Honda, O. Kitao, H. Nakai, 
 T. Vreven, K. Throssell, J. A. Montgomery, Jr., J. E. Peralta, 
 F. Ogliaro, M. J. Bearpark, J. J. Heyd, E. N. Brothers, K. N. Kudin, 
 V. N. Staroverov, T. A. Keith, R. Kobayashi, J. Normand, 
 K. Raghavachari, A. P. Rendell, J. C. Burant, S. S. Iyengar, 
 J. Tomasi, M. Cossi, J. M. Millam, M. Klene, C. Adamo, R. Cammi, 
 J. W. Ochterski, R. L. Martin, K. Morokuma, O. Farkas, 
 J. B. Foresman, and D. J. Fox, Gaussian, Inc., Wallingford CT, 2019.
 
 ******************************************
 Gaussian 16:  ES64L-G16RevC.02  7-Dec-2021
                 7-Jul-2026 
 ******************************************
 %chk=MeOH_n.chk
 %rwf=MeOH_n.rwf
 %nprocshared=4
 Will use up to    4 processors via shared memory.
 %mem=8GB
 ----------------------------------------------------------------------
 #P UWB97XD/cc-pVDZ SCF=(MaxCycle=2000,XQC) NoSymm Pop=Full GFInput GFP
 rint Density=Current 5D 7F
 ----------------------------------------------------------------------
 1/30=1,38=1,172=1/1;
 2/12=2,15=1,17=6,18=5,40=1/2;
 3/5=16,8=11,11=2,24=110,25=1,30=1,74=-58,116=2/1,2,3;
 4//1;
 5/5=2,7=2000,8=3,13=1,38=5/2,8;
 6/7=3,22=-1,28=1/1;
 99/5=1,9=1/99;
 Leave Link    1 at Tue Jul  7 12:56:59 2026, MaxMem=  1073741824 cpu:               0.0 elap:               0.0
 (Enter /home/jianhua/gaussian_gpu/g16/l101.exe)
 ---------------------------
 MeOH neutral wb97xd/cc-pVDZ
 ---------------------------
 Symbolic Z-matrix:
 Charge =  0 Multiplicity = 1
 C                     0.       -0.01473   0.7156 
 O                     0.        0.06955  -0.68014 
 H                     0.        1.01127   1.13766 
 H                     0.       -0.86652  -1.00956 
 H                     0.91512  -0.53665   1.07035 
 H                    -0.91512  -0.53665   1.07035 
 
 ITRead=  0  0  0  0  0  0
 MicOpt= -1 -1 -1 -1 -1 -1
 NAtoms=      6 NQM=        6 NQMF=       0 NMMI=      0 NMMIF=      0
                NMic=       0 NMicF=      0.
                    Isotopes and Nuclear Properties:
 (Nuclear quadrupole moments (NQMom) in fm**2, nuclear magnetic moments (NMagM)
  in nuclear magnetons)

  Atom         1           2           3           4           5           6
 IAtWgt=          12          16           1           1           1           1
 AtmWgt=  12.0000000  15.9949146   1.0078250   1.0078250   1.0078250   1.0078250
 NucSpn=           0           0           1           1           1           1
 AtZEff=  -0.0000000  -0.0000000  -0.0000000  -0.0000000  -0.0000000  -0.0000000
 NQMom=    0.0000000   0.0000000   0.0000000   0.0000000   0.0000000   0.0000000
 NMagM=    0.0000000   0.0000000   2.7928460   2.7928460   2.7928460   2.7928460
 AtZNuc=   6.0000000   8.0000000   1.0000000   1.0000000   1.0000000   1.0000000
 Leave Link  101 at Tue Jul  7 12:57:00 2026, MaxMem=  1073741824 cpu:               0.1 elap:               0.1
 (Enter /home/jianhua/gaussian_gpu/g16/l202.exe)
                          Input orientation:                          
 ---------------------------------------------------------------------
 Center     Atomic      Atomic             Coordinates (Angstroms)
 Number     Number       Type             X           Y           Z
 ---------------------------------------------------------------------
      1          6           0        0.000000   -0.014727    0.715601
      2          8           0        0.000000    0.069553   -0.680144
      3          1           0        0.000000    1.011274    1.137660
      4          1           0        0.000000   -0.866519   -1.009556
      5          1           0        0.915119   -0.536649    1.070345
      6          1           0       -0.915119   -0.536649    1.070345
 ---------------------------------------------------------------------
                    Distance matrix (angstroms):
                    1          2          3          4          5
     1  C    0.000000
     2  O    1.398287   0.000000
     3  H    1.109420   2.047255   0.000000
     4  H    1.923985   0.992342   2.852481   0.000000
     5  H    1.111615   2.066188   1.799455   2.296137   0.000000
     6  H    1.111615   2.066188   1.799455   2.296137   1.830238
                    6
     6  H    0.000000
 Symmetry turned off by external request.
 Stoichiometry    CH4O
 Framework group  CS[SG(CH2O),X(H2)]
 Deg. of freedom     8
 Full point group                 CS      NOp   2
 Rotational constants (GHZ):         122.1941474          25.4304664          24.4938881
 Leave Link  202 at Tue Jul  7 12:57:00 2026, MaxMem=  1073741824 cpu:               0.0 elap:               0.0
 (Enter /home/jianhua/gaussian_gpu/g16/l301.exe)
 Standard basis: CC-pVDZ (5D, 7F)
 Ernie: Thresh=  0.10000D-02 Tol=  0.10000D-05 Strict=F.
 Ernie:  4 primitive shells out of 64 were deleted.
 AO basis set in the form of general basis input (Overlap normalization):
      1 0
 S   7 1.00       0.000000000000
      0.6665000000D+04  0.6935163173D-03
      0.1000000000D+04  0.5341502433D-02
      0.2280000000D+03  0.2713667141D-01
      0.6471000000D+02  0.1019923853D+00
      0.2106000000D+02  0.2755086365D+00
      0.7495000000D+01  0.4510864331D+00
      0.2797000000D+01  0.2875657448D+00
 S   7 1.00       0.000000000000
      0.6665000000D+04  0.7733547404D-05
      0.2280000000D+03  0.2780721367D-03
      0.6471000000D+02 -0.2578756542D-02
      0.2106000000D+02 -0.8950876838D-02
      0.7495000000D+01 -0.1060588547D+00
      0.2797000000D+01 -0.1315176856D+00
      0.5215000000D+00  0.1099486598D+01
 S   1 1.00       0.000000000000
      0.1596000000D+00  0.1000000000D+01
 P   3 1.00       0.000000000000
      0.9439000000D+01  0.5697925159D-01
      0.2002000000D+01  0.3132072115D+00
      0.5456000000D+00  0.7603767417D+00
 P   1 1.00       0.000000000000
      0.1517000000D+00  0.1000000000D+01
 D   1 1.00       0.000000000000
      0.5500000000D+00  0.1000000000D+01
 ****
      2 0
 S   7 1.00       0.000000000000
      0.1172000000D+05  0.7118644339D-03
      0.1759000000D+04  0.5485201992D-02
      0.4008000000D+03  0.2790992963D-01
      0.1137000000D+03  0.1051332075D+00
      0.3703000000D+02  0.2840024898D+00
      0.1327000000D+02  0.4516739459D+00
      0.5025000000D+01  0.2732081255D+00
 S   7 1.00       0.000000000000
      0.1172000000D+05  0.7690300460D-05
      0.4008000000D+03  0.3134845790D-03
      0.1137000000D+03 -0.2966148530D-02
      0.3703000000D+02 -0.1087535430D-01
      0.1327000000D+02 -0.1207538168D+00
      0.5025000000D+01 -0.1062752639D+00
      0.1013000000D+01  0.1095975478D+01
 S   1 1.00       0.000000000000
      0.3023000000D+00  0.1000000000D+01
 P   3 1.00       0.000000000000
      0.1770000000D+02  0.6267916628D-01
      0.3854000000D+01  0.3335365659D+00
      0.1046000000D+01  0.7412396416D+00
 P   1 1.00       0.000000000000
      0.2753000000D+00  0.1000000000D+01
 D   1 1.00       0.000000000000
      0.1185000000D+01  0.1000000000D+01
 ****
      3 0
 S   3 1.00       0.000000000000
      0.1301000000D+02  0.3349872639D-01
      0.1962000000D+01  0.2348008012D+00
      0.4446000000D+00  0.8136829579D+00
 S   1 1.00       0.000000000000
      0.1220000000D+00  0.1000000000D+01
 P   1 1.00       0.000000000000
      0.7270000000D+00  0.1000000000D+01
 ****
      4 0
 S   3 1.00       0.000000000000
      0.1301000000D+02  0.3349872639D-01
      0.1962000000D+01  0.2348008012D+00
      0.4446000000D+00  0.8136829579D+00
 S   1 1.00       0.000000000000
      0.1220000000D+00  0.1000000000D+01
 P   1 1.00       0.000000000000
      0.7270000000D+00  0.1000000000D+01
 ****
      5 0
 S   3 1.00       0.000000000000
      0.1301000000D+02  0.3349872639D-01
      0.1962000000D+01  0.2348008012D+00
      0.4446000000D+00  0.8136829579D+00
 S   1 1.00       0.000000000000
      0.1220000000D+00  0.1000000000D+01
 P   1 1.00       0.000000000000
      0.7270000000D+00  0.1000000000D+01
 ****
      6 0
 S   3 1.00       0.000000000000
      0.1301000000D+02  0.3349872639D-01
      0.1962000000D+01  0.2348008012D+00
      0.4446000000D+00  0.8136829579D+00
 S   1 1.00       0.000000000000
      0.1220000000D+00  0.1000000000D+01
 P   1 1.00       0.000000000000
      0.7270000000D+00  0.1000000000D+01
 ****

 AO basis set (Overlap normalization):
 Atom C1       Shell     1 S   7     bf    1 -     1          0.000000000000         -0.027829807664          1.352290282410
      0.6665000000D+04  0.6935163173D-03
      0.1000000000D+04  0.5341502433D-02
      0.2280000000D+03  0.2713667141D-01
      0.6471000000D+02  0.1019923853D+00
      0.2106000000D+02  0.2755086365D+00
      0.7495000000D+01  0.4510864331D+00
      0.2797000000D+01  0.2875657448D+00
 Atom C1       Shell     2 S   7     bf    2 -     2          0.000000000000         -0.027829807664          1.352290282410
      0.6665000000D+04  0.7733547404D-05
      0.2280000000D+03  0.2780721367D-03
      0.6471000000D+02 -0.2578756542D-02
      0.2106000000D+02 -0.8950876838D-02
      0.7495000000D+01 -0.1060588547D+00
      0.2797000000D+01 -0.1315176856D+00
      0.5215000000D+00  0.1099486598D+01
 Atom C1       Shell     3 S   1     bf    3 -     3          0.000000000000         -0.027829807664          1.352290282410
      0.1596000000D+00  0.1000000000D+01
 Atom C1       Shell     4 P   3     bf    4 -     6          0.000000000000         -0.027829807664          1.352290282410
      0.9439000000D+01  0.5697925159D-01
      0.2002000000D+01  0.3132072115D+00
      0.5456000000D+00  0.7603767417D+00
 Atom C1       Shell     5 P   1     bf    7 -     9          0.000000000000         -0.027829807664          1.352290282410
      0.1517000000D+00  0.1000000000D+01
 Atom C1       Shell     6 D   1     bf   10 -    14          0.000000000000         -0.027829807664          1.352290282410
      0.5500000000D+00  0.1000000000D+01
 Atom O2       Shell     7 S   7     bf   15 -    15          0.000000000000          0.131435176279         -1.285285696294
      0.1172000000D+05  0.7118644339D-03
      0.1759000000D+04  0.5485201992D-02
      0.4008000000D+03  0.2790992963D-01
      0.1137000000D+03  0.1051332075D+00
      0.3703000000D+02  0.2840024898D+00
      0.1327000000D+02  0.4516739459D+00
      0.5025000000D+01  0.2732081255D+00
 Atom O2       Shell     8 S   7     bf   16 -    16          0.000000000000          0.131435176279         -1.285285696294
      0.1172000000D+05  0.7690300460D-05
      0.4008000000D+03  0.3134845790D-03
      0.1137000000D+03 -0.2966148530D-02
      0.3703000000D+02 -0.1087535430D-01
      0.1327000000D+02 -0.1207538168D+00
      0.5025000000D+01 -0.1062752639D+00
      0.1013000000D+01  0.1095975478D+01
 Atom O2       Shell     9 S   1     bf   17 -    17          0.000000000000          0.131435176279         -1.285285696294
      0.3023000000D+00  0.1000000000D+01
 Atom O2       Shell    10 P   3     bf   18 -    20          0.000000000000          0.131435176279         -1.285285696294
      0.1770000000D+02  0.6267916628D-01
      0.3854000000D+01  0.3335365659D+00
      0.1046000000D+01  0.7412396416D+00
 Atom O2       Shell    11 P   1     bf   21 -    23          0.000000000000          0.131435176279         -1.285285696294
      0.2753000000D+00  0.1000000000D+01
 Atom O2       Shell    12 D   1     bf   24 -    28          0.000000000000          0.131435176279         -1.285285696294
      0.1185000000D+01  0.1000000000D+01
 Atom H3       Shell    13 S   3     bf   29 -    29          0.000000000000          1.911031463811          2.149866200818
      0.1301000000D+02  0.3349872639D-01
      0.1962000000D+01  0.2348008012D+00
      0.4446000000D+00  0.8136829579D+00
 Atom H3       Shell    14 S   1     bf   30 -    30          0.000000000000          1.911031463811          2.149866200818
      0.1220000000D+00  0.1000000000D+01
 Atom H3       Shell    15 P   1     bf   31 -    33          0.000000000000          1.911031463811          2.149866200818
      0.7270000000D+00  0.1000000000D+01
 Atom H4       Shell    16 S   3     bf   34 -    34          0.000000000000         -1.637483780705         -1.907784536384
      0.1301000000D+02  0.3349872639D-01
      0.1962000000D+01  0.2348008012D+00
      0.4446000000D+00  0.8136829579D+00
 Atom H4       Shell    17 S   1     bf   35 -    35          0.000000000000         -1.637483780705         -1.907784536384
      0.1220000000D+00  0.1000000000D+01
 Atom H4       Shell    18 P   1     bf   36 -    38          0.000000000000         -1.637483780705         -1.907784536384
      0.7270000000D+00  0.1000000000D+01
 Atom H5       Shell    19 S   3     bf   39 -    39          1.729323903441         -1.014118879131          2.022659286743
      0.1301000000D+02  0.3349872639D-01
      0.1962000000D+01  0.2348008012D+00
      0.4446000000D+00  0.8136829579D+00
 Atom H5       Shell    20 S   1     bf   40 -    40          1.729323903441         -1.014118879131          2.022659286743
      0.1220000000D+00  0.1000000000D+01
 Atom H5       Shell    21 P   1     bf   41 -    43          1.729323903441         -1.014118879131          2.022659286743
      0.7270000000D+00  0.1000000000D+01
 Atom H6       Shell    22 S   3     bf   44 -    44         -1.729323903441         -1.014118879131          2.022659286743
      0.1301000000D+02  0.3349872639D-01
      0.1962000000D+01  0.2348008012D+00
      0.4446000000D+00  0.8136829579D+00
 Atom H6       Shell    23 S   1     bf   45 -    45         -1.729323903441         -1.014118879131          2.022659286743
      0.1220000000D+00  0.1000000000D+01
 Atom H6       Shell    24 P   1     bf   46 -    48         -1.729323903441         -1.014118879131          2.022659286743
      0.7270000000D+00  0.1000000000D+01
    48 basis functions,    94 primitive gaussians,    50 cartesian basis functions
     9 alpha electrons        9 beta electrons
       nuclear repulsion energy        40.3456006110 Hartrees.
 IExCor= 4639 DFT=T Ex+Corr=wB97XD ExCW=0 ScaHFX=  1.000000
 ScaDFX=  1.000000  1.000000  1.000000  1.000000 ScalE2=  1.000000  1.000000
 IRadAn=      5 IRanWt=     -1 IRanGd=            0 ICorTp=0 IEmpDi=121
 HFx  wShort=  0.000000 wLong=  0.200000 cFull=  0.222036 cShort=  0.000000 cLong=  0.777964
 DFx  wShort=  0.000000 wLong=  0.200000 cFull=  0.000000 cShort=  0.000000 cLong=  1.000000
 NAtoms=    6 NActive=    6 NUniq=    6 SFac= 1.00D+00 NAtFMM=   60 NAOKFM=F Big=F
 Integral buffers will be    131072 words long.
 Raffenetti 2 integral format.
 Two-electron integral symmetry is turned off.
 R6Disp:  Grimme-D2 Dispersion energy=       -0.0008444909 Hartrees.
 Nuclear repulsion after empirical dispersion term =       40.3447561201 Hartrees.
 Leave Link  301 at Tue Jul  7 12:57:00 2026, MaxMem=  1073741824 cpu:               0.0 elap:               0.0
 (Enter /home/jianhua/gaussian_gpu/g16/l302.exe)
 NPDir=0 NMtPBC=     1 NCelOv=     1 NCel=       1 NClECP=     1 NCelD=      1
         NCelK=      1 NCelE2=     1 NClLst=     1 CellRange=     0.0.
 One-electron integrals computed using PRISM.
 NBasis=    48 RedAO= T EigKep=  1.66D-02  NBF=    48
 NBsUse=    48 1.00D-06 EigRej= -1.00D+00 NBFU=    48
 Precomputing XC quadrature grid using
 IXCGrd= 4 IRadAn=           5 IRanWt=          -1 IRanGd=           0 AccXCQ= 0.00D+00.
 Generated NRdTot=       0 NPtTot=           0 NUsed=           0 NTot=          32
 NSgBfM=    50    50    50    50    50 MxSgAt=     6 MxSgA2=     6.
 Leave Link  302 at Tue Jul  7 12:57:00 2026, MaxMem=  1073741824 cpu:               0.1 elap:               0.1
 (Enter /home/jianhua/gaussian_gpu/g16/l303.exe)
 DipDrv:  MaxL=1.
 Leave Link  303 at Tue Jul  7 12:57:00 2026, MaxMem=  1073741824 cpu:               0.0 elap:               0.0
 (Enter /home/jianhua/gaussian_gpu/g16/l401.exe)
 ExpMin= 1.22D-01 ExpMax= 1.17D+04 ExpMxC= 4.01D+02 IAcc=3 IRadAn=         5 AccDes= 0.00D+00
 Harris functional with IExCor= 4639 and IRadAn=       5 diagonalized for initial guess.
 HarFok:  IExCor= 4639 AccDes= 0.00D+00 IRadAn=         5 IDoV= 1 UseB2=F ITyADJ=14
 ICtDFT=  3500011 ScaDFX=  1.000000  1.000000  1.000000  1.000000
 FoFCou: FMM=F IPFlag=           0 FMFlag=      100000 FMFlg1=           0
         NFxFlg=           0 DoJE=T BraDBF=F KetDBF=T FulRan=T
         wScrn=  0.000000 ICntrl=       500 IOpCl=  0 I1Cent=   200000004 NGrid=           0
         NMat0=    1 NMatS0=      1 NMatT0=    0 NMatD0=    1 NMtDS0=    0 NMtDT0=    0
 Symmetry not used in FoFCou.
 Harris En= -110.913124481360    
 JPrj=0 DoOrth=F DoCkMO=F.
 Initial guess <Sx>= 0.0000 <Sy>= 0.0000 <Sz>= 0.0000 <S**2>= 0.0000 S= 0.0000
 Leave Link  401 at Tue Jul  7 12:57:00 2026, MaxMem=  1073741824 cpu:               0.5 elap:               0.1
 (Enter /home/jianhua/gaussian_gpu/g16/l502.exe)
 Keep R1 and R2 ints in memory in canonical form, NReq=6318726.
 FoFCou: FMM=F IPFlag=           0 FMFlag=           0 FMFlg1=           0
         NFxFlg=           0 DoJE=F BraDBF=F KetDBF=F FulRan=T
         wScrn=  0.000000 ICntrl=       600 IOpCl=  0 I1Cent=           0 NGrid=           0
         NMat0=    1 NMatS0=   1176 NMatT0=    0 NMatD0=    1 NMtDS0=    0 NMtDT0=    0
 Symmetry not used in FoFCou.
 Two-electron integral symmetry not used.
 UHF open shell SCF:
 Using DIIS extrapolation, IDIIS=  1040.
 NGot=  1073741824 LenX=  1070967480 LenY=  1070964539
 Requested convergence on RMS density matrix=1.00D-08 within 128 cycles.
 Requested convergence on MAX density matrix=1.00D-06.
 Requested convergence on             energy=1.00D-06.
 No special actions if energy rises.
 Integral accuracy reduced to 1.0D-05 until final iterations.

 Cycle   1  Pass 0  IDiag  1:
 E= -115.670182366102    
 DIIS: error= 3.44D-02 at cycle   1 NSaved=   1.
 NSaved= 1 IEnMin= 1 EnMin= -115.670182366102     IErMin= 1 ErrMin= 3.44D-02
 ErrMax= 3.44D-02  0.00D+00 EMaxC= 1.00D-01 BMatC= 1.50D-01 BMatP= 1.50D-01
 IDIUse=3 WtCom= 6.56D-01 WtEn= 3.44D-01
 Coeff-Com:  0.100D+01
 Coeff-En:   0.100D+01
 Coeff:      0.100D+01
 Gap=     0.508 Goal=   None    Shift=    0.000
 Gap=     0.508 Goal=   None    Shift=    0.000
 GapD=    0.508 DampG=2.000 DampE=0.500 DampFc=1.0000 IDamp=-1.
 RMSDP=2.82D-03 MaxDP=3.79D-02              OVMax= 4.05D-02

 Cycle   2  Pass 0  IDiag  1:
 E= -115.679202666835     Delta-E=       -0.009020300733 Rises=F Damp=F
 DIIS: error= 1.16D-02 at cycle   2 NSaved=   2.
 NSaved= 2 IEnMin= 2 EnMin= -115.679202666835     IErMin= 2 ErrMin= 1.16D-02
 ErrMax= 1.16D-02  0.00D+00 EMaxC= 1.00D-01 BMatC= 3.48D-02 BMatP= 1.50D-01
 IDIUse=3 WtCom= 8.84D-01 WtEn= 1.16D-01
 Coeff-Com:  0.275D+00 0.725D+00
 Coeff-En:   0.133D+00 0.867D+00
 Coeff:      0.258D+00 0.742D+00
 Gap=     0.479 Goal=   None    Shift=    0.000
 Gap=     0.479 Goal=   None    Shift=    0.000
 RMSDP=1.58D-03 MaxDP=2.82D-02 DE=-9.02D-03 OVMax= 2.52D-02

 Cycle   3  Pass 0  IDiag  1:
 E= -115.683660671004     Delta-E=       -0.004458004169 Rises=F Damp=F
 DIIS: error= 5.92D-03 at cycle   3 NSaved=   3.
 NSaved= 3 IEnMin= 3 EnMin= -115.683660671004     IErMin= 3 ErrMin= 5.92D-03
 ErrMax= 5.92D-03  0.00D+00 EMaxC= 1.00D-01 BMatC= 1.03D-02 BMatP= 3.48D-02
 IDIUse=3 WtCom= 9.41D-01 WtEn= 5.92D-02
 Coeff-Com:  0.455D-02 0.351D+00 0.644D+00
 Coeff-En:   0.000D+00 0.201D+00 0.799D+00
 Coeff:      0.429D-02 0.342D+00 0.654D+00
 Gap=     0.485 Goal=   None    Shift=    0.000
 Gap=     0.485 Goal=   None    Shift=    0.000
 RMSDP=6.34D-04 MaxDP=1.08D-02 DE=-4.46D-03 OVMax= 9.59D-03

 Cycle   4  Pass 0  IDiag  1:
 E= -115.685463078503     Delta-E=       -0.001802407499 Rises=F Damp=F
 DIIS: error= 4.86D-04 at cycle   4 NSaved=   4.
 NSaved= 4 IEnMin= 4 EnMin= -115.685463078503     IErMin= 4 ErrMin= 4.86D-04
 ErrMax= 4.86D-04  0.00D+00 EMaxC= 1.00D-01 BMatC= 7.39D-05 BMatP= 1.03D-02
 IDIUse=3 WtCom= 9.95D-01 WtEn= 4.86D-03
 Coeff-Com: -0.165D-02 0.724D-01 0.175D+00 0.754D+00
 Coeff-En:   0.000D+00 0.000D+00 0.000D+00 0.100D+01
 Coeff:     -0.165D-02 0.721D-01 0.175D+00 0.755D+00
 Gap=     0.483 Goal=   None    Shift=    0.000
 Gap=     0.483 Goal=   None    Shift=    0.000
 RMSDP=6.61D-05 MaxDP=1.09D-03 DE=-1.80D-03 OVMax= 1.22D-03

 Cycle   5  Pass 0  IDiag  1:
 E= -115.685477420520     Delta-E=       -0.000014342017 Rises=F Damp=F
 DIIS: error= 1.13D-04 at cycle   5 NSaved=   5.
 NSaved= 5 IEnMin= 5 EnMin= -115.685477420520     IErMin= 5 ErrMin= 1.13D-04
 ErrMax= 1.13D-04  0.00D+00 EMaxC= 1.00D-01 BMatC= 3.64D-06 BMatP= 7.39D-05
 IDIUse=3 WtCom= 9.99D-01 WtEn= 1.13D-03
 Coeff-Com: -0.110D-02 0.277D-02 0.182D-01 0.200D+00 0.780D+00
 Coeff-En:   0.000D+00 0.000D+00 0.000D+00 0.000D+00 0.100D+01
 Coeff:     -0.110D-02 0.277D-02 0.181D-01 0.200D+00 0.780D+00
 Gap=     0.483 Goal=   None    Shift=    0.000
 Gap=     0.483 Goal=   None    Shift=    0.000
 RMSDP=2.00D-05 MaxDP=2.63D-04 DE=-1.43D-05 OVMax= 2.70D-04

 Cycle   6  Pass 0  IDiag  1:
 E= -115.685478312494     Delta-E=       -0.000000891974 Rises=F Damp=F
 DIIS: error= 3.17D-05 at cycle   6 NSaved=   6.
 NSaved= 6 IEnMin= 6 EnMin= -115.685478312494     IErMin= 6 ErrMin= 3.17D-05
 ErrMax= 3.17D-05  0.00D+00 EMaxC= 1.00D-01 BMatC= 1.94D-07 BMatP= 3.64D-06
 IDIUse=1 WtCom= 1.00D+00 WtEn= 0.00D+00
 Coeff-Com:  0.123D-03-0.723D-02-0.150D-01-0.400D-01 0.142D+00 0.920D+00
 Coeff:      0.123D-03-0.723D-02-0.150D-01-0.400D-01 0.142D+00 0.920D+00
 Gap=     0.483 Goal=   None    Shift=    0.000
 Gap=     0.483 Goal=   None    Shift=    0.000
 RMSDP=6.92D-06 MaxDP=5.69D-05 DE=-8.92D-07 OVMax= 9.32D-05

 Initial convergence to 1.0D-05 achieved.  Increase integral accuracy.
 Cycle   7  Pass 1  IDiag  1:
 E= -115.685488145940     Delta-E=       -0.000009833446 Rises=F Damp=F
 DIIS: error= 2.29D-05 at cycle   1 NSaved=   1.
 NSaved= 1 IEnMin= 1 EnMin= -115.685488145940     IErMin= 1 ErrMin= 2.29D-05
 ErrMax= 2.29D-05  0.00D+00 EMaxC= 1.00D-01 BMatC= 7.76D-08 BMatP= 7.76D-08
 IDIUse=1 WtCom= 1.00D+00 WtEn= 0.00D+00
 Coeff-Com:  0.100D+01
 Coeff:      0.100D+01
 Gap=     0.483 Goal=   None    Shift=    0.000
 Gap=     0.483 Goal=   None    Shift=    0.000
 RMSDP=6.92D-06 MaxDP=5.69D-05 DE=-9.83D-06 OVMax= 5.05D-05

 Cycle   8  Pass 1  IDiag  1:
 E= -115.685488165128     Delta-E=       -0.000000019189 Rises=F Damp=F
 DIIS: error= 6.55D-06 at cycle   2 NSaved=   2.
 NSaved= 2 IEnMin= 2 EnMin= -115.685488165128     IErMin= 2 ErrMin= 6.55D-06
 ErrMax= 6.55D-06  0.00D+00 EMaxC= 1.00D-01 BMatC= 5.06D-09 BMatP= 7.76D-08
 IDIUse=1 WtCom= 1.00D+00 WtEn= 0.00D+00
 Coeff-Com:  0.525D-01 0.948D+00
 Coeff:      0.525D-01 0.948D+00
 Gap=     0.483 Goal=   None    Shift=    0.000
 Gap=     0.483 Goal=   None    Shift=    0.000
 RMSDP=9.12D-07 MaxDP=1.44D-05 DE=-1.92D-08 OVMax= 1.80D-05

 Cycle   9  Pass 1  IDiag  1:
 E= -115.685488166126     Delta-E=       -0.000000000998 Rises=F Damp=F
 DIIS: error= 3.72D-06 at cycle   3 NSaved=   3.
 NSaved= 3 IEnMin= 3 EnMin= -115.685488166126     IErMin= 3 ErrMin= 3.72D-06
 ErrMax= 3.72D-06  0.00D+00 EMaxC= 1.00D-01 BMatC= 2.89D-09 BMatP= 5.06D-09
 IDIUse=1 WtCom= 1.00D+00 WtEn= 0.00D+00
 Coeff-Com: -0.442D-01 0.423D+00 0.621D+00
 Coeff:     -0.442D-01 0.423D+00 0.621D+00
 Gap=     0.483 Goal=   None    Shift=    0.000
 Gap=     0.483 Goal=   None    Shift=    0.000
 RMSDP=3.65D-07 MaxDP=6.76D-06 DE=-9.98D-10 OVMax= 7.17D-06

 Cycle  10  Pass 1  IDiag  1:
 E= -115.685488166720     Delta-E=       -0.000000000594 Rises=F Damp=F
 DIIS: error= 5.78D-07 at cycle   4 NSaved=   4.
 NSaved= 4 IEnMin= 4 EnMin= -115.685488166720     IErMin= 4 ErrMin= 5.78D-07
 ErrMax= 5.78D-07  0.00D+00 EMaxC= 1.00D-01 BMatC= 8.46D-11 BMatP= 2.89D-09
 IDIUse=1 WtCom= 1.00D+00 WtEn= 0.00D+00
 Coeff-Com: -0.187D-01 0.728D-01 0.172D+00 0.774D+00
 Coeff:     -0.187D-01 0.728D-01 0.172D+00 0.774D+00
 Gap=     0.483 Goal=   None    Shift=    0.000
 Gap=     0.483 Goal=   None    Shift=    0.000
 RMSDP=1.06D-07 MaxDP=1.44D-06 DE=-5.94D-10 OVMax= 1.72D-06

 Cycle  11  Pass 1  IDiag  1:
 E= -115.685488166737     Delta-E=       -0.000000000017 Rises=F Damp=F
 DIIS: error= 1.79D-07 at cycle   5 NSaved=   5.
 NSaved= 5 IEnMin= 5 EnMin= -115.685488166737     IErMin= 5 ErrMin= 1.79D-07
 ErrMax= 1.79D-07  0.00D+00 EMaxC= 1.00D-01 BMatC= 1.17D-11 BMatP= 8.46D-11
 IDIUse=1 WtCom= 1.00D+00 WtEn= 0.00D+00
 Coeff-Com: -0.188D-02-0.153D-01-0.482D-02 0.261D+00 0.760D+00
 Coeff:     -0.188D-02-0.153D-01-0.482D-02 0.261D+00 0.760D+00
 Gap=     0.483 Goal=   None    Shift=    0.000
 Gap=     0.483 Goal=   None    Shift=    0.000
 RMSDP=3.65D-08 MaxDP=4.39D-07 DE=-1.75D-11 OVMax= 6.00D-07

 Cycle  12  Pass 1  IDiag  1:
 E= -115.685488166741     Delta-E=       -0.000000000003 Rises=F Damp=F
 DIIS: error= 3.54D-08 at cycle   6 NSaved=   6.
 NSaved= 6 IEnMin= 6 EnMin= -115.685488166741     IErMin= 6 ErrMin= 3.54D-08
 ErrMax= 3.54D-08  0.00D+00 EMaxC= 1.00D-01 BMatC= 4.45D-13 BMatP= 1.17D-11
 IDIUse=1 WtCom= 1.00D+00 WtEn= 0.00D+00
 Coeff-Com:  0.107D-02-0.854D-02-0.134D-01-0.229D-01 0.139D+00 0.905D+00
 Coeff:      0.107D-02-0.854D-02-0.134D-01-0.229D-01 0.139D+00 0.905D+00
 Gap=     0.483 Goal=   None    Shift=    0.000
 Gap=     0.483 Goal=   None    Shift=    0.000
 RMSDP=1.28D-08 MaxDP=1.49D-07 DE=-3.27D-12 OVMax= 1.87D-07

 Cycle  13  Pass 1  IDiag  1:
 E= -115.685488166740     Delta-E=        0.000000000000 Rises=F Damp=F
 DIIS: error= 5.55D-09 at cycle   7 NSaved=   7.
 NSaved= 7 IEnMin= 6 EnMin= -115.685488166741     IErMin= 7 ErrMin= 5.55D-09
 ErrMax= 5.55D-09  0.00D+00 EMaxC= 1.00D-01 BMatC= 6.78D-15 BMatP= 4.45D-13
 IDIUse=1 WtCom= 1.00D+00 WtEn= 0.00D+00
 Coeff-Com: -0.451D-04 0.883D-03 0.166D-02-0.477D-02-0.265D-01-0.101D+00
 Coeff-Com:  0.113D+01
 Coeff:     -0.451D-04 0.883D-03 0.166D-02-0.477D-02-0.265D-01-0.101D+00
 Coeff:      0.113D+01
 Gap=     0.483 Goal=   None    Shift=    0.000
 Gap=     0.483 Goal=   None    Shift=    0.000
 RMSDP=3.30D-09 MaxDP=3.87D-08 DE= 4.83D-13 OVMax= 4.40D-08

 SCF Done:  E(UwB97XD) =  -115.685488167     A.U. after   13 cycles
            NFock= 13  Conv=0.33D-08     -V/T= 2.0066
 <Sx>= 0.0000 <Sy>= 0.0000 <Sz>= 0.0000 <S**2>= 0.0000 S= 0.0000
 <L.S>=  0.00000000000    
 KE= 1.149255654418D+02 PE=-3.521056492396D+02 EE= 8.114983951090D+01
 Annihilation of the first spin contaminant:
 S**2 before annihilation     0.0000,   after     0.0000
 Leave Link  502 at Tue Jul  7 12:57:01 2026, MaxMem=  1073741824 cpu:               3.2 elap:               0.8
 (Enter /home/jianhua/gaussian_gpu/g16/l508.exe)
 QCSCF skips out because SCF is already converged.
 Leave Link  508 at Tue Jul  7 12:57:01 2026, MaxMem=  1073741824 cpu:               0.0 elap:               0.0
 (Enter /home/jianhua/gaussian_gpu/g16/l601.exe)
 Copying SCF densities to generalized density rwf, IOpCl= 1 IROHF=0.

 **********************************************************************

            Population analysis using the SCF Density.

 **********************************************************************

 Alpha  occ. eigenvalues --  -19.25318 -10.33510  -1.11324  -0.76418  -0.58402
 Alpha  occ. eigenvalues --   -0.52294  -0.50468  -0.40805  -0.34525
 Alpha virt. eigenvalues --    0.13815   0.18011   0.21978   0.22089   0.28390
 Alpha virt. eigenvalues --    0.53708   0.55432   0.58719   0.65136   0.71865
 Alpha virt. eigenvalues --    0.73575   0.74028   0.95856   0.98173   1.03649
 Alpha virt. eigenvalues --    1.09469   1.15323   1.28143   1.42282   1.48591
 Alpha virt. eigenvalues --    1.48652   1.66764   1.70449   1.73497   1.75493
 Alpha virt. eigenvalues --    1.84061   1.95531   2.05575   2.14673   2.15615
 Alpha virt. eigenvalues --    2.22344   2.47399   2.48482   2.50054   3.01453
 Alpha virt. eigenvalues --    3.10240   3.16498   3.28009   3.73598
  Beta  occ. eigenvalues --  -19.25318 -10.33510  -1.11324  -0.76418  -0.58402
  Beta  occ. eigenvalues --   -0.52294  -0.50468  -0.40805  -0.34525
  Beta virt. eigenvalues --    0.13815   0.18011   0.21978   0.22089   0.28390
  Beta virt. eigenvalues --    0.53708   0.55432   0.58719   0.65136   0.71865
  Beta virt. eigenvalues --    0.73575   0.74028   0.95856   0.98173   1.03649
  Beta virt. eigenvalues --    1.09469   1.15323   1.28143   1.42282   1.48591
  Beta virt. eigenvalues --    1.48652   1.66764   1.70449   1.73497   1.75493
  Beta virt. eigenvalues --    1.84061   1.95531   2.05575   2.14673   2.15615
  Beta virt. eigenvalues --    2.22344   2.47399   2.48482   2.50054   3.01453
  Beta virt. eigenvalues --    3.10240   3.16498   3.28009   3.73598
     Alpha Molecular Orbital Coefficients:
                           1         2         3         4         5
                           O         O         O         O         O
     Eigenvalues --   -19.25318 -10.33510  -1.11324  -0.76418  -0.58402
   1 1   C  1S         -0.00004   0.99646  -0.07609  -0.16911   0.02457
   2        2S         -0.00015   0.02837   0.14909   0.35599  -0.04625
   3        3S          0.00557  -0.01234   0.05569   0.22290  -0.03481
   4        4PX         0.00000  -0.00000  -0.00000  -0.00000   0.00000
   5        4PY         0.00001  -0.00002  -0.00076   0.01842   0.21317
   6        4PZ        -0.00051  -0.00006  -0.11911   0.05599  -0.22297
   7        5PX        -0.00000   0.00000   0.00000  -0.00000   0.00000
   8        5PY         0.00024   0.00020  -0.00653  -0.00165   0.09929
   9        5PZ        -0.00244  -0.00084  -0.02018   0.02949  -0.08359
  10        6D 0       -0.00024  -0.00029   0.02991  -0.00104   0.02367
  11        6D+1       -0.00000  -0.00000   0.00000  -0.00000   0.00000
  12        6D-1        0.00015   0.00012   0.00310  -0.00468  -0.02113
  13        6D+2        0.00002   0.00007  -0.00065  -0.00165  -0.00442
  14        6D-2       -0.00000  -0.00000  -0.00000   0.00000  -0.00000
  15 2   O  1S          0.99659   0.00007  -0.19820   0.06340  -0.03864
  16        2S          0.02209   0.00066   0.41774  -0.14561   0.08770
  17        3S         -0.01093  -0.00143   0.39143  -0.14129   0.14633
  18        4PX        -0.00000   0.00000   0.00000   0.00000   0.00000
  19        4PY        -0.00140   0.00004  -0.08023   0.09462   0.33929
  20        4PZ         0.00100  -0.00009   0.07502   0.17967   0.24136
  21        5PX         0.00000  -0.00000  -0.00000   0.00000  -0.00000
  22        5PY         0.00077   0.00074  -0.00409   0.01867   0.15947
  23        5PZ        -0.00291  -0.00141   0.03425   0.09505   0.09671
  24        6D 0       -0.00022  -0.00078   0.00733   0.01149   0.01264
  25        6D+1       -0.00000  -0.00000  -0.00000   0.00000  -0.00000
  26        6D-1        0.00021   0.00010  -0.00074  -0.00462   0.00265
  27        6D+2       -0.00015   0.00020  -0.00488   0.00382   0.00994
  28        6D-2       -0.00000   0.00000  -0.00000   0.00000   0.00000
  29 3   H  1S         -0.00071  -0.00132   0.03566   0.18882   0.04024
  30        2S         -0.00041   0.00209   0.00538   0.03167   0.00379
  31        3PX         0.00000  -0.00000  -0.00000   0.00000  -0.00000
  32        3PY         0.00013   0.00152  -0.00562  -0.02134   0.00025
  33        3PZ         0.00027   0.00068  -0.00530  -0.00578  -0.00514
  34 4   H  1S          0.00015   0.00070   0.16793  -0.16676  -0.29075
  35        2S          0.00019   0.00043   0.00816  -0.02689  -0.08096
  36        3PX        -0.00000   0.00000   0.00000  -0.00000   0.00000
  37        3PY        -0.00097   0.00014   0.03052  -0.02278  -0.02464
  38        3PZ        -0.00012   0.00062   0.01481  -0.00431  -0.01013
  39 5   H  1S         -0.00063  -0.00125   0.03800   0.17364  -0.15233
  40        2S         -0.00026   0.00229   0.00297   0.02565  -0.03948
  41        3PX         0.00006   0.00130  -0.00677  -0.01717   0.01178
  42        3PY        -0.00008  -0.00080   0.00390   0.01079  -0.00042
  43        3PZ         0.00027   0.00057  -0.00488  -0.00466  -0.00103
  44 6   H  1S         -0.00063  -0.00125   0.03800   0.17364  -0.15233
  45        2S         -0.00026   0.00229   0.00297   0.02565  -0.03948
  46        3PX        -0.00006  -0.00130   0.00677   0.01717  -0.01178
  47        3PY        -0.00008  -0.00080   0.00390   0.01079  -0.00042
  48        3PZ         0.00027   0.00057  -0.00488  -0.00466  -0.00103
                           6         7         8         9        10
                           O         O         O         O         V
     Eigenvalues --    -0.52294  -0.50468  -0.40805  -0.34525   0.13815
   1 1   C  1S         -0.00000  -0.00247   0.00917  -0.00000  -0.06125
   2        2S          0.00000   0.01270  -0.03077  -0.00000   0.05217
   3        3S         -0.00000   0.00622   0.01362   0.00000   1.14965
   4        4PX         0.40833  -0.00000  -0.00000  -0.19004   0.00000
   5        4PY        -0.00000  -0.28485  -0.28282  -0.00000  -0.07079
   6        4PZ        -0.00000  -0.28901   0.11735   0.00000   0.17443
   7        5PX         0.16193   0.00000  -0.00000  -0.03503   0.00000
   8        5PY         0.00000  -0.14197  -0.07938  -0.00000  -0.16933
   9        5PZ        -0.00000  -0.10586   0.00833   0.00000   0.31793
  10        6D 0        0.00000   0.02547  -0.00902  -0.00000   0.01932
  11        6D+1       -0.00943  -0.00000  -0.00000  -0.03966   0.00000
  12        6D-1       -0.00000   0.00128  -0.03091   0.00000   0.00806
  13        6D+2        0.00000   0.00770   0.01205   0.00000   0.00439
  14        6D-2       -0.01330   0.00000   0.00000   0.01079  -0.00000
  15 2   O  1S          0.00000   0.03353  -0.05741   0.00000  -0.06453
  16        2S         -0.00000  -0.06576   0.11865   0.00000   0.11066
  17        3S         -0.00000  -0.13503   0.24981  -0.00000   0.58732
  18        4PX         0.27267  -0.00000   0.00000   0.57927  -0.00000
  19        4PY        -0.00000  -0.11725   0.38944  -0.00000  -0.20304
  20        4PZ         0.00000   0.36030  -0.20648   0.00000  -0.04264
  21        5PX         0.17776  -0.00000   0.00000   0.44756  -0.00000
  22        5PY        -0.00000  -0.08939   0.25041  -0.00000  -0.27129
  23        5PZ         0.00000   0.20547  -0.17166  -0.00000  -0.13130
  24        6D 0        0.00000   0.00789   0.00014  -0.00000  -0.00113
  25        6D+1        0.01360  -0.00000   0.00000   0.00556   0.00000
  26        6D-1       -0.00000  -0.01865   0.00375   0.00000  -0.00447
  27        6D+2       -0.00000  -0.00100   0.01172  -0.00000  -0.00474
  28        6D-2       -0.00767   0.00000   0.00000  -0.01289   0.00000
  29 3   H  1S         -0.00000  -0.29800  -0.25073  -0.00000  -0.01768
  30        2S         -0.00000  -0.10038  -0.12874  -0.00000  -0.28837
  31        3PX         0.01366  -0.00000  -0.00000  -0.00863  -0.00000
  32        3PY        -0.00000   0.01462   0.00419   0.00000  -0.00506
  33        3PZ         0.00000   0.00085   0.00872  -0.00000   0.01150
  34 4   H  1S         -0.00000  -0.06229  -0.21686   0.00000  -0.13392
  35        2S         -0.00000  -0.05248  -0.06079  -0.00000  -0.92908
  36        3PX         0.01377  -0.00000  -0.00000   0.02987  -0.00000
  37        3PY        -0.00000  -0.01182  -0.00622  -0.00000   0.00602
  38        3PZ        -0.00000   0.01849  -0.01688   0.00000   0.00415
  39 5   H  1S          0.26027   0.03564   0.15931  -0.20956  -0.04021
  40        2S          0.09854   0.00657   0.09994  -0.13550  -0.62157
  41        3PX        -0.00599  -0.00255  -0.00984   0.00218  -0.00271
  42        3PY         0.01026  -0.00684  -0.00640  -0.00546   0.00386
  43        3PZ        -0.00613  -0.00748   0.00108   0.00137   0.01055
  44 6   H  1S         -0.26027   0.03564   0.15931   0.20956  -0.04021
  45        2S         -0.09854   0.00657   0.09994   0.13550  -0.62157
  46        3PX        -0.00599   0.00255   0.00984   0.00218   0.00271
  47        3PY        -0.01026  -0.00684  -0.00640   0.00546   0.00386
  48        3PZ         0.00613  -0.00748   0.00108  -0.00137   0.01055
                          11        12        13        14        15
                           V         V         V         V         V
     Eigenvalues --     0.18011   0.21978   0.22089   0.28390   0.53708
   1 1   C  1S         -0.11348   0.00000  -0.01731   0.05206   0.00431
   2        2S          0.16938   0.00000   0.01896  -0.07706  -0.03717
   3        3S          1.69517  -0.00000   0.23590  -0.71025   0.01512
   4        4PX         0.00000  -0.41040  -0.00000  -0.00000  -0.00000
   5        4PY         0.06221   0.00000  -0.38199  -0.05138  -0.21335
   6        4PZ         0.04574   0.00000  -0.06732   0.29258   0.10787
   7        5PX         0.00000  -1.25416  -0.00000  -0.00000   0.00000
   8        5PY         0.20909   0.00000  -1.21214  -0.27266   0.99823
   9        5PZ         0.22443   0.00000  -0.27082   1.37046  -0.05778
  10        6D 0       -0.01407   0.00000  -0.00594   0.03321   0.02179
  11        6D+1        0.00000   0.00111   0.00000   0.00000  -0.00000
  12        6D-1       -0.00678  -0.00000   0.00832  -0.00639  -0.09820
  13        6D+2       -0.00439   0.00000  -0.01391  -0.00980   0.15919
  14        6D-2       -0.00000  -0.00704  -0.00000  -0.00000   0.00000
  15 2   O  1S          0.05160  -0.00000   0.02086  -0.05503   0.01489
  16        2S         -0.07822   0.00000  -0.02671   0.06742  -0.05133
  17        3S         -0.52382   0.00000  -0.25768   0.72135  -0.09867
  18        4PX        -0.00000   0.06960   0.00000  -0.00000  -0.00000
  19        4PY         0.15876  -0.00000   0.09707   0.11816  -0.03305
  20        4PZ        -0.04610   0.00000  -0.06313   0.35707   0.12810
  21        5PX        -0.00000   0.17821   0.00000  -0.00000  -0.00000
  22        5PY         0.21607  -0.00000   0.20986   0.21199  -0.16584
  23        5PZ        -0.04468   0.00000  -0.10247   0.73408   0.00916
  24        6D 0        0.00819  -0.00000   0.00090   0.00272  -0.01747
  25        6D+1        0.00000  -0.01008  -0.00000  -0.00000   0.00000
  26        6D-1        0.00579   0.00000  -0.01034  -0.00352   0.02221
  27        6D+2        0.00330  -0.00000   0.00071  -0.00266  -0.01380
  28        6D-2        0.00000  -0.00584  -0.00000  -0.00000   0.00000
  29 3   H  1S         -0.06042  -0.00000   0.11735  -0.05496  -0.77911
  30        2S         -1.11735  -0.00000   1.79283   0.17957   0.31725
  31        3PX        -0.00000  -0.01026  -0.00000   0.00000   0.00000
  32        3PY         0.00203  -0.00000   0.00542  -0.00983  -0.04002
  33        3PZ        -0.00775   0.00000  -0.00448   0.01507  -0.01123
  34 4   H  1S          0.11308   0.00000  -0.00356   0.07277   0.24370
  35        2S          0.79667  -0.00000   0.13027   0.82604   0.01011
  36        3PX        -0.00000   0.01494   0.00000   0.00000  -0.00000
  37        3PY         0.00137  -0.00000   0.00345  -0.01069  -0.03481
  38        3PZ        -0.01390  -0.00000   0.00856   0.00507  -0.07076
  39 5   H  1S         -0.02734   0.06834  -0.05594  -0.10511   0.39827
  40        2S         -0.71166   1.65292  -0.96030  -0.25922  -0.15872
  41        3PX        -0.00062  -0.00170  -0.00490  -0.01306   0.03944
  42        3PY        -0.00256  -0.00619  -0.00825  -0.00063   0.04953
  43        3PZ        -0.00746  -0.00229  -0.00339   0.01857   0.01743
  44 6   H  1S         -0.02734  -0.06834  -0.05594  -0.10511   0.39827
  45        2S         -0.71166  -1.65292  -0.96030  -0.25922  -0.15872
  46        3PX         0.00062  -0.00170   0.00490   0.01306  -0.03944
  47        3PY        -0.00256   0.00619  -0.00825  -0.00063   0.04953
  48        3PZ        -0.00746   0.00229  -0.00339   0.01857   0.01743
                          16        17        18        19        20
                           V         V         V         V         V
     Eigenvalues --     0.55432   0.58719   0.65136   0.71865   0.73575
   1 1   C  1S          0.00000  -0.03025   0.00857   0.00000  -0.08443
   2        2S         -0.00000   0.42392   0.01574  -0.00000   0.61413
   3        3S          0.00000  -0.37554  -0.13996   0.00000  -0.75648
   4        4PX        -0.21465   0.00000   0.00000  -0.88366  -0.00000
   5        4PY         0.00000  -0.08616  -0.47001  -0.00000   0.18300
   6        4PZ        -0.00000  -0.87539   0.29328  -0.00000   0.20507
   7        5PX         1.19371  -0.00000  -0.00000   1.98390   0.00000
   8        5PY        -0.00000   0.40831   1.26351   0.00000  -0.42914
   9        5PZ         0.00000   1.39038  -0.26573   0.00000  -0.47532
  10        6D 0       -0.00000  -0.10745   0.12197  -0.00000   0.12739
  11        6D+1       -0.04067  -0.00000  -0.00000   0.19146   0.00000
  12        6D-1        0.00000   0.01676   0.16042   0.00000  -0.04248
  13        6D+2       -0.00000   0.03028  -0.03055   0.00000   0.01928
  14        6D-2        0.17189  -0.00000   0.00000  -0.20424  -0.00000
  15 2   O  1S         -0.00000   0.00572  -0.01937  -0.00000   0.02847
  16        2S          0.00000  -0.14818   0.14273   0.00000  -0.12130
  17        3S          0.00000   0.64817  -0.36905  -0.00000  -0.17277
  18        4PX        -0.18873   0.00000  -0.00000   0.01400   0.00000
  19        4PY        -0.00000  -0.04543  -0.28945  -0.00000  -0.06700
  20        4PZ        -0.00000  -0.27157   0.11686   0.00000  -0.15276
  21        5PX        -0.20324   0.00000   0.00000  -0.16428  -0.00000
  22        5PY         0.00000  -0.17703  -0.18216  -0.00000   0.10516
  23        5PZ         0.00000   0.08829  -0.15042   0.00000  -0.14087
  24        6D 0        0.00000   0.07700  -0.00728   0.00000  -0.00332
  25        6D+1        0.00931   0.00000   0.00000  -0.02340  -0.00000
  26        6D-1       -0.00000  -0.00877  -0.05607  -0.00000   0.00401
  27        6D+2        0.00000   0.01313   0.06088   0.00000   0.00066
  28        6D-2        0.01021  -0.00000  -0.00000   0.00515   0.00000
  29 3   H  1S          0.00000  -0.21907   0.02710   0.00000  -0.69892
  30        2S         -0.00000  -0.22774  -0.87877  -0.00000   0.99874
  31        3PX         0.08440  -0.00000   0.00000  -0.03477  -0.00000
  32        3PY         0.00000   0.02678   0.05679   0.00000  -0.19409
  33        3PZ        -0.00000  -0.00513   0.08326   0.00000  -0.06691
  34 4   H  1S         -0.00000  -0.39803  -0.94945  -0.00000   0.07604
  35        2S          0.00000   0.62525   0.89316   0.00000  -0.29815
  36        3PX        -0.00734  -0.00000  -0.00000   0.01246   0.00000
  37        3PY         0.00000   0.04789   0.16234   0.00000   0.00705
  38        3PZ         0.00000  -0.09939   0.07860   0.00000   0.02970
  39 5   H  1S         -0.69798  -0.05483  -0.06181   0.27689  -0.62243
  40        2S          0.10693  -0.04787   0.51359  -1.63571   0.47752
  41        3PX         0.00363   0.01775  -0.06564   0.14945  -0.12295
  42        3PY         0.04982   0.00180   0.03977  -0.10369   0.07235
  43        3PZ        -0.01152  -0.03864  -0.03688   0.08597  -0.00299
  44 6   H  1S          0.69798  -0.05483  -0.06181  -0.27689  -0.62243
  45        2S         -0.10693  -0.04787   0.51359   1.63571   0.47752
  46        3PX         0.00363  -0.01775   0.06564   0.14945   0.12295
  47        3PY        -0.04982   0.00180   0.03977   0.10369   0.07235
  48        3PZ         0.01152  -0.03864  -0.03688  -0.08597  -0.00299
                          21        22        23        24        25
                           V         V         V         V         V
     Eigenvalues --     0.74028   0.95856   0.98173   1.03649   1.09469
   1 1   C  1S         -0.02157  -0.01014   0.00000  -0.08128  -0.01512
   2        2S          0.07435  -0.25515   0.00000  -1.57364  -0.37094
   3        3S          0.00958   0.99894  -0.00000   4.38633  -0.32319
   4        4PX        -0.00000   0.00000   0.03339   0.00000  -0.00000
   5        4PY        -0.72141  -0.09697  -0.00000   0.04921  -0.14306
   6        4PZ        -0.06473  -0.18848   0.00000  -0.24997   0.22689
   7        5PX         0.00000  -0.00000  -0.06007  -0.00000   0.00000
   8        5PY         1.52038   0.11600   0.00000  -0.10447   0.35230
   9        5PZ         0.03354   0.09786  -0.00000   0.33327   0.89694
  10        6D 0       -0.00499   0.06415  -0.00000   0.04464  -0.38170
  11        6D+1        0.00000  -0.00000   0.27402   0.00000  -0.00000
  12        6D-1        0.10264  -0.24173  -0.00000   0.22746  -0.05559
  13        6D+2       -0.21364  -0.25754  -0.00000   0.07540  -0.05336
  14        6D-2       -0.00000  -0.00000   0.26370   0.00000  -0.00000
  15 2   O  1S          0.02186   0.03760  -0.00000   0.04419  -0.04646
  16        2S         -0.15932  -0.06492   0.00000  -0.27735   0.27584
  17        3S          0.18035  -0.53313   0.00000  -0.37859   0.17109
  18        4PX        -0.00000  -0.00000   0.66130   0.00000   0.00000
  19        4PY         0.27416  -0.54276  -0.00000  -0.06766  -0.02631
  20        4PZ        -0.01163   0.16398   0.00000  -0.02185  -0.71659
  21        5PX        -0.00000   0.00000  -0.57797  -0.00000  -0.00000
  22        5PY        -0.20649   0.83670   0.00000   0.25329   0.19588
  23        5PZ        -0.02014  -0.24262   0.00000  -0.52395   1.64673
  24        6D 0       -0.01562   0.00906   0.00000  -0.04446  -0.02253
  25        6D+1       -0.00000   0.00000  -0.01885  -0.00000   0.00000
  26        6D-1        0.02230   0.01381   0.00000  -0.03472   0.00282
  27        6D+2       -0.04953  -0.00146  -0.00000  -0.00233   0.01464
  28        6D-2        0.00000  -0.00000   0.01550   0.00000  -0.00000
  29 3   H  1S          0.17660  -0.04690   0.00000  -0.48760  -0.15664
  30        2S         -1.47383  -0.38739   0.00000  -0.75794  -0.33613
  31        3PX         0.00000  -0.00000   0.19928   0.00000  -0.00000
  32        3PY         0.14927   0.12965   0.00000   0.03413   0.08055
  33        3PZ         0.08198  -0.21087  -0.00000   0.12819  -0.13343
  34 4   H  1S          0.61269   0.35184   0.00000   0.09494   0.00706
  35        2S         -0.61360   0.19113   0.00000  -0.23143   0.88705
  36        3PX        -0.00000   0.00000  -0.05318   0.00000  -0.00000
  37        3PY        -0.16670   0.22336   0.00000  -0.07625   0.15308
  38        3PZ        -0.05448   0.01396  -0.00000   0.26585   0.12047
  39 5   H  1S         -0.29433  -0.02756   0.03442  -0.42310  -0.03528
  40        2S          0.91418  -0.13536   0.09090  -0.79765  -0.11693
  41        3PX        -0.11139  -0.10191  -0.02212   0.09688  -0.01222
  42        3PY         0.02616  -0.12685   0.12244   0.02805  -0.00247
  43        3PZ        -0.03291   0.13435   0.23431   0.03698  -0.00684
  44 6   H  1S         -0.29433  -0.02756  -0.03442  -0.42310  -0.03528
  45        2S          0.91418  -0.13536  -0.09090  -0.79765  -0.11693
  46        3PX         0.11139   0.10191  -0.02212  -0.09688   0.01222
  47        3PY         0.02616  -0.12685  -0.12244   0.02805  -0.00247
  48        3PZ        -0.03291   0.13435  -0.23431   0.03698  -0.00684
                          26        27        28        29        30
                           V         V         V         V         V
     Eigenvalues --     1.15323   1.28143   1.42282   1.48591   1.48652
   1 1   C  1S         -0.00000  -0.04686   0.00000   0.00000  -0.01672
   2        2S         -0.00000  -0.89585   0.00000   0.00000  -0.38180
   3        3S          0.00000   2.26089  -0.00000  -0.00000   0.43794
   4        4PX         0.10579   0.00000   0.00570  -0.01258   0.00000
   5        4PY         0.00000   0.07371  -0.00000   0.00000  -0.00121
   6        4PZ         0.00000   0.13546   0.00000  -0.00000   0.15316
   7        5PX        -0.66453  -0.00000   0.51671   0.03830  -0.00000
   8        5PY        -0.00000   0.32045  -0.00000   0.00000  -0.27873
   9        5PZ         0.00000  -0.26828   0.00000  -0.00000   0.26880
  10        6D 0       -0.00000   0.00711  -0.00000   0.00000  -0.16709
  11        6D+1        0.50980   0.00000  -0.06429   0.01394   0.00000
  12        6D-1        0.00000  -0.49242   0.00000   0.00000  -0.02751
  13        6D+2        0.00000  -0.04302   0.00000  -0.00000   0.14654
  14        6D-2        0.10237  -0.00000  -0.22583  -0.00559  -0.00000
  15 2   O  1S         -0.00000  -0.01663  -0.00000   0.00000  -0.00228
  16        2S          0.00000   0.04184   0.00000  -0.00000   0.06776
  17        3S          0.00000  -0.04154  -0.00000   0.00000  -0.12106
  18        4PX        -0.61567   0.00000   0.25053  -0.01694  -0.00000
  19        4PY        -0.00000   0.42471  -0.00000   0.00000  -0.23517
  20        4PZ        -0.00000   0.09265   0.00000  -0.00000   0.02521
  21        5PX         0.92457  -0.00000  -0.81948   0.06754   0.00000
  22        5PY         0.00000  -1.46196   0.00000  -0.00000   0.58189
  23        5PZ         0.00000  -0.49907   0.00000  -0.00000   0.57014
  24        6D 0       -0.00000  -0.00043   0.00000   0.00000  -0.00856
  25        6D+1       -0.08797  -0.00000  -0.01245   0.00466   0.00000
  26        6D-1       -0.00000   0.08198  -0.00000  -0.00000   0.09576
  27        6D+2       -0.00000   0.07730  -0.00000  -0.00000   0.01045
  28        6D-2       -0.01318  -0.00000  -0.16152   0.02283   0.00000
  29 3   H  1S         -0.00000  -0.23292   0.00000   0.00000   0.02944
  30        2S         -0.00000  -0.30803   0.00000   0.00000  -0.03231
  31        3PX         0.10123  -0.00000   0.15474   0.55393   0.00000
  32        3PY         0.00000   0.05247  -0.00000   0.00000  -0.21300
  33        3PZ         0.00000  -0.10706   0.00000  -0.00000   0.40135
  34 4   H  1S          0.00000  -0.80952   0.00000  -0.00000   0.39332
  35        2S          0.00000  -0.37494   0.00000  -0.00000   0.10437
  36        3PX         0.27539   0.00000   0.93488  -0.12018  -0.00000
  37        3PY         0.00000  -0.06494   0.00000  -0.00000   0.33332
  38        3PZ         0.00000  -0.38787  -0.00000   0.00000  -0.56354
  39 5   H  1S          0.03561  -0.31010  -0.17801  -0.02420  -0.20218
  40        2S          0.22650  -0.21551  -0.18908  -0.00372  -0.13612
  41        3PX        -0.04230  -0.04042   0.00862  -0.32450   0.02845
  42        3PY         0.07252  -0.11172  -0.03785  -0.52279  -0.17642
  43        3PZ         0.16736   0.01217  -0.10519   0.01661  -0.34201
  44 6   H  1S         -0.03561  -0.31010   0.17801   0.02420  -0.20218
  45        2S         -0.22650  -0.21551   0.18908   0.00372  -0.13612
  46        3PX        -0.04230   0.04042   0.00862  -0.32450  -0.02845
  47        3PY        -0.07252  -0.11172   0.03785   0.52279  -0.17642
  48        3PZ        -0.16736   0.01217   0.10519  -0.01661  -0.34201
                          31        32        33        34        35
                           V         V         V         V         V
     Eigenvalues --     1.66764   1.70449   1.73497   1.75493   1.84061
   1 1   C  1S          0.00000  -0.00864   0.01755  -0.00000   0.04462
   2        2S          0.00000   0.04285  -0.06906  -0.00000   0.35710
   3        3S         -0.00000   0.15992  -0.29854   0.00000  -1.84324
   4        4PX        -0.09232  -0.00000  -0.00000  -0.14766  -0.00000
   5        4PY        -0.00000  -0.10555  -0.09347   0.00000   0.05298
   6        4PZ         0.00000  -0.08858   0.13007  -0.00000   0.18157
   7        5PX         1.25804   0.00000   0.00000   0.19163   0.00000
   8        5PY        -0.00000   1.15837   0.37926  -0.00000   0.58151
   9        5PZ         0.00000  -0.47406   1.06660  -0.00000   0.60297
  10        6D 0       -0.00000   0.39533  -0.67013   0.00000  -0.68727
  11        6D+1       -0.10928   0.00000   0.00000   0.72060  -0.00000
  12        6D-1        0.00000   0.20651   0.41736  -0.00000  -0.30384
  13        6D+2        0.00000  -0.55499  -0.36402   0.00000   0.15710
  14        6D-2       -0.40090  -0.00000  -0.00000  -0.52980   0.00000
  15 2   O  1S         -0.00000   0.01686  -0.03976   0.00000  -0.02688
  16        2S          0.00000   0.10775  -0.09945  -0.00000  -1.10966
  17        3S          0.00000  -0.65048   1.11584  -0.00000   2.66090
  18        4PX         0.08536   0.00000   0.00000   0.15365  -0.00000
  19        4PY        -0.00000   0.19265   0.05036  -0.00000  -0.11297
  20        4PZ         0.00000  -0.25446   0.44251  -0.00000   0.04946
  21        5PX        -0.42288  -0.00000   0.00000   0.08174  -0.00000
  22        5PY         0.00000  -0.42473  -0.17403   0.00000  -0.64085
  23        5PZ         0.00000  -0.08411   0.08837  -0.00000   0.48549
  24        6D 0        0.00000   0.01418  -0.02484   0.00000  -0.10225
  25        6D+1        0.08637  -0.00000  -0.00000  -0.15814   0.00000
  26        6D-1       -0.00000  -0.00765  -0.06873   0.00000   0.01012
  27        6D+2       -0.00000  -0.02296  -0.03101   0.00000   0.12352
  28        6D-2       -0.03243  -0.00000   0.00000   0.01650  -0.00000
  29 3   H  1S          0.00000  -0.59716  -0.62986   0.00000   0.09181
  30        2S          0.00000  -0.17657   0.01417  -0.00000  -0.15893
  31        3PX        -0.50671   0.00000   0.00000   0.09494   0.00000
  32        3PY         0.00000  -0.38253  -0.12713   0.00000  -0.13427
  33        3PZ        -0.00000   0.27707  -0.50847   0.00000   0.43197
  34 4   H  1S          0.00000  -0.11151  -0.15464   0.00000  -0.62205
  35        2S          0.00000   0.09665   0.14572  -0.00000  -0.04578
  36        3PX         0.04028  -0.00000  -0.00000  -0.26456   0.00000
  37        3PY        -0.00000   0.01019  -0.04464  -0.00000  -0.40014
  38        3PZ        -0.00000   0.08502   0.02324  -0.00000   0.19207
  39 5   H  1S         -0.47882   0.46309   0.02643  -0.48427   0.08921
  40        2S         -0.31777   0.08747  -0.06640   0.23217   0.32355
  41        3PX        -0.40948   0.02147   0.05862  -0.07515  -0.20323
  42        3PY         0.00294  -0.34114  -0.04383   0.13984  -0.26580
  43        3PZ         0.42669   0.09810  -0.23328  -0.44253   0.05215
  44 6   H  1S          0.47882   0.46309   0.02643   0.48427   0.08921
  45        2S          0.31777   0.08747  -0.06640  -0.23217   0.32355
  46        3PX        -0.40948  -0.02147  -0.05862  -0.07515   0.20323
  47        3PY        -0.00294  -0.34114  -0.04383  -0.13984  -0.26580
  48        3PZ        -0.42669   0.09810  -0.23328   0.44253   0.05215
                          36        37        38        39        40
                           V         V         V         V         V
     Eigenvalues --     1.95531   2.05575   2.14673   2.15615   2.22344
   1 1   C  1S          0.01181  -0.00416   0.01403  -0.00000  -0.00193
   2        2S         -0.03954   0.07509   0.42077  -0.00000   0.00298
   3        3S         -1.01006  -0.20884  -0.96793   0.00000   0.03415
   4        4PX        -0.00000   0.00000   0.00000  -0.14541   0.00000
   5        4PY        -0.05519  -0.04693   0.02050   0.00000  -0.28443
   6        4PZ         0.26217   0.27672   0.32961  -0.00000   0.14383
   7        5PX        -0.00000  -0.00000  -0.00000  -0.73221  -0.00000
   8        5PY        -0.74834   0.08145  -0.14042   0.00000  -0.63530
   9        5PZ        -0.03437   0.53913   0.82845  -0.00000  -0.04185
  10        6D 0       -0.28856   0.49546   0.28939   0.00000  -0.12928
  11        6D+1       -0.00000   0.00000  -0.00000  -0.56059   0.00000
  12        6D-1        0.52822   0.23764  -0.20456   0.00000  -0.54241
  13        6D+2        0.06127   0.45928  -0.37508   0.00000  -0.56413
  14        6D-2       -0.00000   0.00000  -0.00000  -0.83349  -0.00000
  15 2   O  1S         -0.00409  -0.01602   0.01801   0.00000  -0.03109
  16        2S         -0.75896  -0.36598  -1.22720   0.00000   0.01253
  17        3S          1.32455   1.16202   1.54043  -0.00000   0.85144
  18        4PX        -0.00000  -0.00000  -0.00000  -0.13703  -0.00000
  19        4PY        -0.00405  -0.31588   0.27893   0.00000  -0.47899
  20        4PZ        -0.10840  -0.33174  -0.10597   0.00000  -0.12858
  21        5PX         0.00000   0.00000   0.00000   0.24060   0.00000
  22        5PY         0.14318  -0.04693  -0.05871   0.00000  -0.22490
  23        5PZ         0.96137   0.34970   0.61845  -0.00000  -0.01627
  24        6D 0       -0.07150  -0.04024  -0.06268   0.00000   0.02431
  25        6D+1        0.00000   0.00000   0.00000   0.15259   0.00000
  26        6D-1       -0.01871  -0.11475   0.08809  -0.00000   0.07600
  27        6D+2        0.08821   0.09350  -0.02336  -0.00000   0.11813
  28        6D-2       -0.00000   0.00000  -0.00000  -0.09424  -0.00000
  29 3   H  1S          0.13223   0.10591  -0.03371  -0.00000   0.15477
  30        2S          0.57414  -0.13409   0.02549  -0.00000   0.42681
  31        3PX         0.00000  -0.00000   0.00000   0.92838   0.00000
  32        3PY        -0.03813   0.26103   0.31270   0.00000  -0.31300
  33        3PZ        -0.15760  -0.58611  -0.09652  -0.00000   0.20163
  34 4   H  1S         -0.05609  -0.20991  -0.04060   0.00000  -0.48584
  35        2S         -0.03369  -0.13727   0.30214  -0.00000  -0.35738
  36        3PX         0.00000  -0.00000  -0.00000  -0.14025  -0.00000
  37        3PY         0.23837  -0.62002   0.56548   0.00000  -0.80100
  38        3PZ        -0.66250  -0.29922   0.20988  -0.00000  -0.30284
  39 5   H  1S          0.04436  -0.01890   0.10124   0.04106  -0.13961
  40        2S         -0.13270  -0.05978  -0.11585   0.36707  -0.20640
  41        3PX         0.01276   0.04579   0.39630   0.07974   0.50945
  42        3PY         0.13949  -0.42788   0.12177   0.47907   0.40512
  43        3PZ         0.53557  -0.24017  -0.35093   0.29578  -0.03915
  44 6   H  1S          0.04436  -0.01890   0.10124  -0.04106  -0.13961
  45        2S         -0.13270  -0.05978  -0.11585  -0.36707  -0.20640
  46        3PX        -0.01276  -0.04579  -0.39630   0.07974  -0.50945
  47        3PY         0.13949  -0.42788   0.12177  -0.47907   0.40512
  48        3PZ         0.53557  -0.24017  -0.35093  -0.29578  -0.03915
                          41        42        43        44        45
                           V         V         V         V         V
     Eigenvalues --     2.47399   2.48482   2.50054   3.01453   3.10240
   1 1   C  1S         -0.00000  -0.06011   0.02176   0.00000   0.00000
   2        2S          0.00000   0.99930  -0.38036   0.00000  -0.00000
   3        3S          0.00000   1.82855  -0.72689  -0.00000  -0.00000
   4        4PX         1.26585  -0.00000   0.00000   0.14148   0.17304
   5        4PY         0.00000   0.38438   1.17482   0.00000  -0.00000
   6        4PZ         0.00000   0.56792  -0.03920  -0.00000   0.00000
   7        5PX         1.12770  -0.00000   0.00000   0.26913  -0.07344
   8        5PY         0.00000   0.40034   0.92988  -0.00000   0.00000
   9        5PZ         0.00000   0.26482   0.02672  -0.00000   0.00000
  10        6D 0       -0.00000  -0.69624   0.23541   0.00000  -0.00000
  11        6D+1        0.64854  -0.00000   0.00000  -0.19013   0.72067
  12        6D-1        0.00000   0.32547   0.63542   0.00000  -0.00000
  13        6D+2        0.00000  -0.26704  -1.15532  -0.00000  -0.00000
  14        6D-2       -1.13206   0.00000  -0.00000  -0.33878  -0.13248
  15 2   O  1S         -0.00000  -0.00633  -0.01219   0.00000  -0.00000
  16        2S          0.00000   0.41220  -0.16650   0.00000  -0.00000
  17        3S         -0.00000  -0.40166   0.55884  -0.00000   0.00000
  18        4PX         0.04045  -0.00000   0.00000   0.04411  -0.01625
  19        4PY        -0.00000  -0.04053  -0.11292  -0.00000  -0.00000
  20        4PZ         0.00000   0.18289  -0.13323  -0.00000   0.00000
  21        5PX        -0.06617   0.00000  -0.00000  -0.33238   0.19169
  22        5PY         0.00000  -0.00067  -0.21124   0.00000  -0.00000
  23        5PZ        -0.00000  -0.15412   0.21690  -0.00000   0.00000
  24        6D 0        0.00000   0.05625  -0.02068  -0.00000   0.00000
  25        6D+1       -0.11423   0.00000  -0.00000  -0.17257   1.00795
  26        6D-1       -0.00000  -0.04500  -0.07626   0.00000  -0.00000
  27        6D+2       -0.00000  -0.06299  -0.06415   0.00000  -0.00000
  28        6D-2       -0.11173   0.00000  -0.00000   1.01100   0.19435
  29 3   H  1S         -0.00000  -1.17865  -1.04886   0.00000   0.00000
  30        2S         -0.00000  -0.66759  -0.53517   0.00000  -0.00000
  31        3PX         0.00684   0.00000  -0.00000   0.11917  -0.05626
  32        3PY         0.00000   1.14606   0.87259  -0.00000  -0.00000
  33        3PZ         0.00000   0.55606   0.40218  -0.00000   0.00000
  34 4   H  1S          0.00000  -0.00966  -0.19712   0.00000  -0.00000
  35        2S          0.00000   0.06779  -0.05678  -0.00000   0.00000
  36        3PX        -0.13546   0.00000  -0.00000   0.46995   0.15707
  37        3PY         0.00000  -0.05669  -0.25161  -0.00000  -0.00000
  38        3PZ         0.00000  -0.03979  -0.23051  -0.00000  -0.00000
  39 5   H  1S         -1.18344  -0.52833   0.89309  -0.17268  -0.25054
  40        2S         -0.68527  -0.25487   0.46483  -0.10741   0.01883
  41        3PX         0.93839   0.48599  -0.67494   0.09174   0.21315
  42        3PY        -0.51983  -0.33493   0.48888   0.02053  -0.14098
  43        3PZ         0.40560   0.29070  -0.33567   0.13154  -0.15582
  44 6   H  1S          1.18344  -0.52833   0.89309   0.17268   0.25054
  45        2S          0.68527  -0.25487   0.46483   0.10741  -0.01883
  46        3PX         0.93839  -0.48599   0.67494   0.09174   0.21315
  47        3PY         0.51983  -0.33493   0.48888  -0.02053   0.14098
  48        3PZ        -0.40560   0.29070  -0.33567  -0.13154   0.15582
                          46        47        48
                           V         V         V
     Eigenvalues --     3.16498   3.28009   3.73598
   1 1   C  1S          0.01837   0.04340   0.01186
   2        2S         -0.24539  -0.19565  -0.03031
   3        3S         -0.55011  -0.81937  -0.04664
   4        4PX        -0.00000   0.00000   0.00000
   5        4PY        -0.16619  -0.01096   0.02734
   6        4PZ         0.35591   0.49099   0.10373
   7        5PX         0.00000   0.00000   0.00000
   8        5PY        -0.10960   0.08031  -0.03862
   9        5PZ         0.19568   0.52431   0.18147
  10        6D 0       -0.32679  -0.45812  -0.16092
  11        6D+1       -0.00000  -0.00000   0.00000
  12        6D-1       -0.53501   0.39185  -0.02293
  13        6D+2        0.13944   0.05743  -0.13364
  14        6D-2        0.00000  -0.00000  -0.00000
  15 2   O  1S         -0.02865  -0.03537   0.03621
  16        2S         -0.45291  -0.46970   0.09909
  17        3S          1.23466   1.47917  -1.15937
  18        4PX        -0.00000  -0.00000  -0.00000
  19        4PY        -0.02685  -0.08459   0.30233
  20        4PZ        -0.05233   0.00901   0.12153
  21        5PX        -0.00000  -0.00000   0.00000
  22        5PY        -0.48510   0.00653   0.98666
  23        5PZ         0.58279   0.66160   0.51995
  24        6D 0        0.33458   0.97150   0.51204
  25        6D+1       -0.00000  -0.00000   0.00000
  26        6D-1       -0.72617   0.52913  -0.66994
  27        6D+2       -0.66703  -0.09662   0.93885
  28        6D-2        0.00000   0.00000   0.00000
  29 3   H  1S          0.31825  -0.12751  -0.10106
  30        2S          0.13208  -0.03407  -0.08340
  31        3PX         0.00000  -0.00000   0.00000
  32        3PY        -0.29351   0.11656   0.05916
  33        3PZ         0.08914  -0.08811   0.13350
  34 4   H  1S         -0.41685  -0.21208   1.46202
  35        2S         -0.00126   0.12603   0.35392
  36        3PX         0.00000   0.00000   0.00000
  37        3PY        -0.04102  -0.22093   1.00298
  38        3PZ        -0.36772   0.17831   0.34134
  39 5   H  1S         -0.14930   0.05255   0.00750
  40        2S         -0.00084   0.04597  -0.03825
  41        3PX         0.11771  -0.08462   0.02545
  42        3PY        -0.01824  -0.04983   0.05492
  43        3PZ         0.01592   0.05114  -0.05536
  44 6   H  1S         -0.14930   0.05255   0.00750
  45        2S         -0.00084   0.04597  -0.03825
  46        3PX        -0.11771   0.08462  -0.02545
  47        3PY        -0.01824  -0.04983   0.05492
  48        3PZ         0.01592   0.05114  -0.05536
     Beta Molecular Orbital Coefficients:
                           1         2         3         4         5
                           O         O         O         O         O
     Eigenvalues --   -19.25318 -10.33510  -1.11324  -0.76418  -0.58402
   1 1   C  1S         -0.00004   0.99646  -0.07609  -0.16911   0.02457
   2        2S         -0.00015   0.02837   0.14909   0.35599  -0.04625
   3        3S          0.00557  -0.01234   0.05569   0.22290  -0.03481
   4        4PX         0.00000  -0.00000  -0.00000  -0.00000   0.00000
   5        4PY         0.00001  -0.00002  -0.00076   0.01842   0.21317
   6        4PZ        -0.00051  -0.00006  -0.11911   0.05599  -0.22297
   7        5PX        -0.00000   0.00000   0.00000  -0.00000   0.00000
   8        5PY         0.00024   0.00020  -0.00653  -0.00165   0.09929
   9        5PZ        -0.00244  -0.00084  -0.02018   0.02949  -0.08359
  10        6D 0       -0.00024  -0.00029   0.02991  -0.00104   0.02367
  11        6D+1       -0.00000  -0.00000   0.00000  -0.00000   0.00000
  12        6D-1        0.00015   0.00012   0.00310  -0.00468  -0.02113
  13        6D+2        0.00002   0.00007  -0.00065  -0.00165  -0.00442
  14        6D-2       -0.00000  -0.00000  -0.00000   0.00000  -0.00000
  15 2   O  1S          0.99659   0.00007  -0.19820   0.06340  -0.03864
  16        2S          0.02209   0.00066   0.41774  -0.14561   0.08770
  17        3S         -0.01093  -0.00143   0.39143  -0.14129   0.14633
  18        4PX        -0.00000   0.00000   0.00000   0.00000   0.00000
  19        4PY        -0.00140   0.00004  -0.08023   0.09462   0.33929
  20        4PZ         0.00100  -0.00009   0.07502   0.17967   0.24136
  21        5PX         0.00000  -0.00000  -0.00000   0.00000  -0.00000
  22        5PY         0.00077   0.00074  -0.00409   0.01867   0.15947
  23        5PZ        -0.00291  -0.00141   0.03425   0.09505   0.09671
  24        6D 0       -0.00022  -0.00078   0.00733   0.01149   0.01264
  25        6D+1       -0.00000  -0.00000  -0.00000   0.00000  -0.00000
  26        6D-1        0.00021   0.00010  -0.00074  -0.00462   0.00265
  27        6D+2       -0.00015   0.00020  -0.00488   0.00382   0.00994
  28        6D-2       -0.00000   0.00000  -0.00000   0.00000   0.00000
  29 3   H  1S         -0.00071  -0.00132   0.03566   0.18882   0.04024
  30        2S         -0.00041   0.00209   0.00538   0.03167   0.00379
  31        3PX         0.00000  -0.00000  -0.00000   0.00000  -0.00000
  32        3PY         0.00013   0.00152  -0.00562  -0.02134   0.00025
  33        3PZ         0.00027   0.00068  -0.00530  -0.00578  -0.00514
  34 4   H  1S          0.00015   0.00070   0.16793  -0.16676  -0.29075
  35        2S          0.00019   0.00043   0.00816  -0.02689  -0.08096
  36        3PX        -0.00000   0.00000   0.00000  -0.00000   0.00000
  37        3PY        -0.00097   0.00014   0.03052  -0.02278  -0.02464
  38        3PZ        -0.00012   0.00062   0.01481  -0.00431  -0.01013
  39 5   H  1S         -0.00063  -0.00125   0.03800   0.17364  -0.15233
  40        2S         -0.00026   0.00229   0.00297   0.02565  -0.03948
  41        3PX         0.00006   0.00130  -0.00677  -0.01717   0.01178
  42        3PY        -0.00008  -0.00080   0.00390   0.01079  -0.00042
  43        3PZ         0.00027   0.00057  -0.00488  -0.00466  -0.00103
  44 6   H  1S         -0.00063  -0.00125   0.03800   0.17364  -0.15233
  45        2S         -0.00026   0.00229   0.00297   0.02565  -0.03948
  46        3PX        -0.00006  -0.00130   0.00677   0.01717  -0.01178
  47        3PY        -0.00008  -0.00080   0.00390   0.01079  -0.00042
  48        3PZ         0.00027   0.00057  -0.00488  -0.00466  -0.00103
                           6         7         8         9        10
                           O         O         O         O         V
     Eigenvalues --    -0.52294  -0.50468  -0.40805  -0.34525   0.13815
   1 1   C  1S         -0.00000  -0.00247   0.00917  -0.00000  -0.06125
   2        2S          0.00000   0.01270  -0.03077  -0.00000   0.05217
   3        3S         -0.00000   0.00622   0.01362   0.00000   1.14965
   4        4PX         0.40833  -0.00000  -0.00000  -0.19004   0.00000
   5        4PY        -0.00000  -0.28485  -0.28282  -0.00000  -0.07079
   6        4PZ        -0.00000  -0.28901   0.11735   0.00000   0.17443
   7        5PX         0.16193   0.00000  -0.00000  -0.03503   0.00000
   8        5PY         0.00000  -0.14197  -0.07938  -0.00000  -0.16933
   9        5PZ        -0.00000  -0.10586   0.00833   0.00000   0.31793
  10        6D 0        0.00000   0.02547  -0.00902  -0.00000   0.01932
  11        6D+1       -0.00943  -0.00000  -0.00000  -0.03966   0.00000
  12        6D-1       -0.00000   0.00128  -0.03091   0.00000   0.00806
  13        6D+2        0.00000   0.00770   0.01205   0.00000   0.00439
  14        6D-2       -0.01330   0.00000   0.00000   0.01079  -0.00000
  15 2   O  1S          0.00000   0.03353  -0.05741   0.00000  -0.06453
  16        2S         -0.00000  -0.06576   0.11865   0.00000   0.11066
  17        3S         -0.00000  -0.13503   0.24981  -0.00000   0.58732
  18        4PX         0.27267  -0.00000   0.00000   0.57927  -0.00000
  19        4PY        -0.00000  -0.11725   0.38944  -0.00000  -0.20304
  20        4PZ         0.00000   0.36030  -0.20648   0.00000  -0.04264
  21        5PX         0.17776  -0.00000   0.00000   0.44756  -0.00000
  22        5PY        -0.00000  -0.08939   0.25041  -0.00000  -0.27129
  23        5PZ         0.00000   0.20547  -0.17166  -0.00000  -0.13130
  24        6D 0        0.00000   0.00789   0.00014  -0.00000  -0.00113
  25        6D+1        0.01360  -0.00000   0.00000   0.00556   0.00000
  26        6D-1       -0.00000  -0.01865   0.00375   0.00000  -0.00447
  27        6D+2       -0.00000  -0.00100   0.01172  -0.00000  -0.00474
  28        6D-2       -0.00767   0.00000   0.00000  -0.01289   0.00000
  29 3   H  1S         -0.00000  -0.29800  -0.25073  -0.00000  -0.01768
  30        2S         -0.00000  -0.10038  -0.12874  -0.00000  -0.28837
  31        3PX         0.01366  -0.00000  -0.00000  -0.00863  -0.00000
  32        3PY        -0.00000   0.01462   0.00419   0.00000  -0.00506
  33        3PZ         0.00000   0.00085   0.00872  -0.00000   0.01150
  34 4   H  1S         -0.00000  -0.06229  -0.21686   0.00000  -0.13392
  35        2S         -0.00000  -0.05248  -0.06079  -0.00000  -0.92908
  36        3PX         0.01377  -0.00000  -0.00000   0.02987  -0.00000
  37        3PY        -0.00000  -0.01182  -0.00622  -0.00000   0.00602
  38        3PZ        -0.00000   0.01849  -0.01688   0.00000   0.00415
  39 5   H  1S          0.26027   0.03564   0.15931  -0.20956  -0.04021
  40        2S          0.09854   0.00657   0.09994  -0.13550  -0.62157
  41        3PX        -0.00599  -0.00255  -0.00984   0.00218  -0.00271
  42        3PY         0.01026  -0.00684  -0.00640  -0.00546   0.00386
  43        3PZ        -0.00613  -0.00748   0.00108   0.00137   0.01055
  44 6   H  1S         -0.26027   0.03564   0.15931   0.20956  -0.04021
  45        2S         -0.09854   0.00657   0.09994   0.13550  -0.62157
  46        3PX        -0.00599   0.00255   0.00984   0.00218   0.00271
  47        3PY        -0.01026  -0.00684  -0.00640   0.00546   0.00386
  48        3PZ         0.00613  -0.00748   0.00108  -0.00137   0.01055
                          11        12        13        14        15
                           V         V         V         V         V
     Eigenvalues --     0.18011   0.21978   0.22089   0.28390   0.53708
   1 1   C  1S         -0.11348   0.00000  -0.01731   0.05206   0.00431
   2        2S          0.16938   0.00000   0.01896  -0.07706  -0.03717
   3        3S          1.69517  -0.00000   0.23590  -0.71025   0.01512
   4        4PX         0.00000  -0.41040  -0.00000  -0.00000  -0.00000
   5        4PY         0.06221   0.00000  -0.38199  -0.05138  -0.21335
   6        4PZ         0.04574   0.00000  -0.06732   0.29258   0.10787
   7        5PX         0.00000  -1.25416  -0.00000  -0.00000   0.00000
   8        5PY         0.20909   0.00000  -1.21214  -0.27266   0.99823
   9        5PZ         0.22443   0.00000  -0.27082   1.37046  -0.05778
  10        6D 0       -0.01407   0.00000  -0.00594   0.03321   0.02179
  11        6D+1        0.00000   0.00111   0.00000   0.00000  -0.00000
  12        6D-1       -0.00678  -0.00000   0.00832  -0.00639  -0.09820
  13        6D+2       -0.00439   0.00000  -0.01391  -0.00980   0.15919
  14        6D-2       -0.00000  -0.00704  -0.00000  -0.00000   0.00000
  15 2   O  1S          0.05160  -0.00000   0.02086  -0.05503   0.01489
  16        2S         -0.07822   0.00000  -0.02671   0.06742  -0.05133
  17        3S         -0.52382   0.00000  -0.25768   0.72135  -0.09867
  18        4PX        -0.00000   0.06960   0.00000  -0.00000  -0.00000
  19        4PY         0.15876  -0.00000   0.09707   0.11816  -0.03305
  20        4PZ        -0.04610   0.00000  -0.06313   0.35707   0.12810
  21        5PX        -0.00000   0.17821   0.00000  -0.00000  -0.00000
  22        5PY         0.21607  -0.00000   0.20986   0.21199  -0.16584
  23        5PZ        -0.04468   0.00000  -0.10247   0.73408   0.00916
  24        6D 0        0.00819  -0.00000   0.00090   0.00272  -0.01747
  25        6D+1        0.00000  -0.01008  -0.00000  -0.00000   0.00000
  26        6D-1        0.00579   0.00000  -0.01034  -0.00352   0.02221
  27        6D+2        0.00330  -0.00000   0.00071  -0.00266  -0.01380
  28        6D-2        0.00000  -0.00584  -0.00000  -0.00000   0.00000
  29 3   H  1S         -0.06042  -0.00000   0.11735  -0.05496  -0.77911
  30        2S         -1.11735  -0.00000   1.79283   0.17957   0.31725
  31        3PX        -0.00000  -0.01026  -0.00000   0.00000   0.00000
  32        3PY         0.00203  -0.00000   0.00542  -0.00983  -0.04002
  33        3PZ        -0.00775   0.00000  -0.00448   0.01507  -0.01123
  34 4   H  1S          0.11308   0.00000  -0.00356   0.07277   0.24370
  35        2S          0.79667  -0.00000   0.13027   0.82604   0.01011
  36        3PX        -0.00000   0.01494   0.00000   0.00000  -0.00000
  37        3PY         0.00137  -0.00000   0.00345  -0.01069  -0.03481
  38        3PZ        -0.01390  -0.00000   0.00856   0.00507  -0.07076
  39 5   H  1S         -0.02734   0.06834  -0.05594  -0.10511   0.39827
  40        2S         -0.71166   1.65292  -0.96030  -0.25922  -0.15872
  41        3PX        -0.00062  -0.00170  -0.00490  -0.01306   0.03944
  42        3PY        -0.00256  -0.00619  -0.00825  -0.00063   0.04953
  43        3PZ        -0.00746  -0.00229  -0.00339   0.01857   0.01743
  44 6   H  1S         -0.02734  -0.06834  -0.05594  -0.10511   0.39827
  45        2S         -0.71166  -1.65292  -0.96030  -0.25922  -0.15872
  46        3PX         0.00062  -0.00170   0.00490   0.01306  -0.03944
  47        3PY        -0.00256   0.00619  -0.00825  -0.00063   0.04953
  48        3PZ        -0.00746   0.00229  -0.00339   0.01857   0.01743
                          16        17        18        19        20
                           V         V         V         V         V
     Eigenvalues --     0.55432   0.58719   0.65136   0.71865   0.73575
   1 1   C  1S          0.00000  -0.03025   0.00857   0.00000  -0.08443
   2        2S         -0.00000   0.42392   0.01574  -0.00000   0.61413
   3        3S          0.00000  -0.37554  -0.13996   0.00000  -0.75648
   4        4PX        -0.21465   0.00000   0.00000  -0.88366  -0.00000
   5        4PY         0.00000  -0.08616  -0.47001  -0.00000   0.18300
   6        4PZ        -0.00000  -0.87539   0.29328  -0.00000   0.20507
   7        5PX         1.19371  -0.00000  -0.00000   1.98390   0.00000
   8        5PY        -0.00000   0.40831   1.26351   0.00000  -0.42914
   9        5PZ         0.00000   1.39038  -0.26573   0.00000  -0.47532
  10        6D 0       -0.00000  -0.10745   0.12197  -0.00000   0.12739
  11        6D+1       -0.04067  -0.00000  -0.00000   0.19146   0.00000
  12        6D-1        0.00000   0.01676   0.16042   0.00000  -0.04248
  13        6D+2       -0.00000   0.03028  -0.03055   0.00000   0.01928
  14        6D-2        0.17189  -0.00000   0.00000  -0.20424  -0.00000
  15 2   O  1S         -0.00000   0.00572  -0.01937  -0.00000   0.02847
  16        2S          0.00000  -0.14818   0.14273   0.00000  -0.12130
  17        3S          0.00000   0.64817  -0.36905  -0.00000  -0.17277
  18        4PX        -0.18873   0.00000  -0.00000   0.01400   0.00000
  19        4PY        -0.00000  -0.04543  -0.28945  -0.00000  -0.06700
  20        4PZ        -0.00000  -0.27157   0.11686   0.00000  -0.15276
  21        5PX        -0.20324   0.00000   0.00000  -0.16428  -0.00000
  22        5PY         0.00000  -0.17703  -0.18216  -0.00000   0.10516
[...]
                          31        32        33        34        35
  31        3PX         0.00052
  32        3PY         0.00000   0.00144
  33        3PZ         0.00000   0.00000   0.00033
  34 4   H  1S          0.00000  -0.00000   0.00000   0.38290
  35        2S          0.00000   0.00003   0.00000   0.06280   0.02759
  36        3PX        -0.00000   0.00000   0.00000   0.00000   0.00000
  37        3PY         0.00000  -0.00000  -0.00000   0.00000   0.00000
  38        3PZ         0.00000  -0.00000   0.00000   0.00000   0.00000
  39 5   H  1S          0.00039   0.00034  -0.00001  -0.00031  -0.00078
  40        2S          0.00037   0.00001  -0.00001  -0.00314  -0.00247
  41        3PX         0.00000   0.00004  -0.00000  -0.00001  -0.00001
  42        3PY         0.00002   0.00006   0.00000  -0.00000  -0.00001
  43        3PZ        -0.00000  -0.00000   0.00000  -0.00001  -0.00008
  44 6   H  1S          0.00039   0.00034  -0.00001  -0.00031  -0.00078
  45        2S          0.00037   0.00001  -0.00001  -0.00314  -0.00247
  46        3PX         0.00000   0.00004  -0.00000  -0.00001  -0.00001
  47        3PY         0.00002   0.00006   0.00000  -0.00000  -0.00001
  48        3PZ        -0.00000  -0.00000   0.00000  -0.00001  -0.00008
                          36        37        38        39        40
  36        3PX         0.00216
  37        3PY         0.00000   0.00447
  38        3PZ         0.00000   0.00000   0.00194
  39 5   H  1S         -0.00003  -0.00000  -0.00001   0.38622
  40        2S         -0.00019  -0.00001  -0.00019   0.11064   0.08066
  41        3PX         0.00000   0.00000   0.00000   0.00000   0.00000
  42        3PY         0.00000   0.00000   0.00000   0.00000   0.00000
  43        3PZ         0.00000  -0.00000   0.00000   0.00000   0.00000
  44 6   H  1S         -0.00003  -0.00000  -0.00001  -0.00301  -0.01162
  45        2S         -0.00019  -0.00001  -0.00019  -0.01162  -0.01524
  46        3PX         0.00000   0.00000   0.00000   0.00061   0.00030
  47        3PY         0.00000   0.00000   0.00000   0.00000   0.00000
  48        3PZ         0.00000  -0.00000   0.00000   0.00000   0.00000
                          41        42        43        44        45
  41        3PX         0.00125
  42        3PY         0.00000   0.00071
  43        3PZ         0.00000   0.00000   0.00029
  44 6   H  1S          0.00061   0.00000   0.00000   0.38622
  45        2S          0.00030   0.00000   0.00000   0.11064   0.08066
  46        3PX         0.00011   0.00000   0.00000   0.00000   0.00000
  47        3PY         0.00000   0.00000   0.00000   0.00000   0.00000
  48        3PZ         0.00000   0.00000   0.00000   0.00000   0.00000
                          46        47        48
  46        3PX         0.00125
  47        3PY         0.00000   0.00071
  48        3PZ         0.00000   0.00000   0.00029
     Gross orbital populations:
                         Total     Alpha     Beta      Spin
   1 1   C  1S          1.99753   0.99876   0.99876   0.00000
   2        2S          0.67537   0.33768   0.33768   0.00000
   3        3S          0.39336   0.19668   0.19668   0.00000
   4        4PX         0.72080   0.36040   0.36040   0.00000
   5        4PY         0.73094   0.36547   0.36547   0.00000
   6        4PZ         0.59643   0.29822   0.29822   0.00000
   7        5PX         0.28100   0.14050   0.14050   0.00000
   8        5PY         0.31892   0.15946   0.15946   0.00000
   9        5PZ         0.14633   0.07317   0.07317   0.00000
  10        6D 0        0.03051   0.01525   0.01525   0.00000
  11        6D+1        0.02851   0.01425   0.01425   0.00000
  12        6D-1        0.02364   0.01182   0.01182   0.00000
  13        6D+2        0.00582   0.00291   0.00291   0.00000
  14        6D-2        0.00724   0.00362   0.00362   0.00000
  15 2   O  1S          1.99837   0.99918   0.99918   0.00000
  16        2S          0.84298   0.42149   0.42149   0.00000
  17        3S          0.88478   0.44239   0.44239   0.00000
  18        4PX         1.14251   0.57126   0.57126   0.00000
  19        4PY         0.88887   0.44443   0.44443   0.00000
  20        4PZ         0.82276   0.41138   0.41138   0.00000
  21        5PX         0.76625   0.38312   0.38312   0.00000
  22        5PY         0.48618   0.24309   0.24309   0.00000
  23        5PZ         0.46103   0.23051   0.23051   0.00000
  24        6D 0        0.00527   0.00263   0.00263   0.00000
  25        6D+1        0.00181   0.00091   0.00091   0.00000
  26        6D-1        0.00300   0.00150   0.00150   0.00000
  27        6D+2        0.00325   0.00162   0.00162   0.00000
  28        6D-2        0.00072   0.00036   0.00036   0.00000
  29 3   H  1S          0.74765   0.37383   0.37383   0.00000
  30        2S          0.17410   0.08705   0.08705   0.00000
  31        3PX         0.00633   0.00316   0.00316   0.00000
  32        3PY         0.01569   0.00785   0.00785   0.00000
  33        3PZ         0.00435   0.00217   0.00217   0.00000
  34 4   H  1S          0.68315   0.34157   0.34157   0.00000
  35        2S          0.07951   0.03976   0.03976   0.00000
  36        3PX         0.02147   0.01073   0.01073   0.00000
  37        3PY         0.03698   0.01849   0.01849   0.00000
  38        3PZ         0.01767   0.00883   0.00883   0.00000
  39 5   H  1S          0.75403   0.37702   0.37702   0.00000
  40        2S          0.19407   0.09703   0.09703   0.00000
  41        3PX         0.01365   0.00683   0.00683   0.00000
  42        3PY         0.00835   0.00417   0.00417   0.00000
  43        3PZ         0.00437   0.00218   0.00218   0.00000
  44 6   H  1S          0.75403   0.37702   0.37702   0.00000
  45        2S          0.19407   0.09703   0.09703   0.00000
  46        3PX         0.01365   0.00683   0.00683   0.00000
  47        3PY         0.00835   0.00417   0.00417   0.00000
  48        3PZ         0.00437   0.00218   0.00218   0.00000
          Condensed to atoms (all electrons):
               1          2          3          4          5          6
     1  C    4.452677   0.352007   0.400878  -0.043618   0.397223   0.397223
     2  O    0.352007   7.704693  -0.023507   0.343824  -0.034625  -0.034625
     3  H    0.400878  -0.023507   0.625820   0.008407  -0.031736  -0.031736
     4  H   -0.043618   0.343824   0.008407   0.544652  -0.007243  -0.007243
     5  H    0.397223  -0.034625  -0.031736  -0.007243   0.690405  -0.039556
     6  H    0.397223  -0.034625  -0.031736  -0.007243  -0.039556   0.690405
          Atomic-Atomic Spin Densities.
               1          2          3          4          5          6
     1  C    0.000000   0.000000   0.000000   0.000000   0.000000   0.000000
     2  O    0.000000   0.000000   0.000000   0.000000   0.000000   0.000000
     3  H    0.000000   0.000000   0.000000   0.000000   0.000000   0.000000
     4  H    0.000000   0.000000   0.000000   0.000000   0.000000   0.000000
     5  H    0.000000   0.000000   0.000000   0.000000   0.000000   0.000000
     6  H    0.000000   0.000000   0.000000   0.000000   0.000000   0.000000
 Mulliken charges and spin densities:
               1          2
     1  C    0.043609   0.000000
     2  O   -0.307768   0.000000
     3  H    0.051874   0.000000
     4  H    0.161221   0.000000
     5  H    0.025532   0.000000
     6  H    0.025532   0.000000
 Sum of Mulliken charges =   0.00000   0.00000
 Mulliken charges and spin densities with hydrogens summed into heavy atoms:
               1          2
     1  C    0.146548   0.000000
     2  O   -0.146548   0.000000
 Electronic spatial extent (au):  <R**2>=             83.2623
 Charge=              0.0000 electrons
 Dipole moment (field-independent basis, Debye):
    X=             -0.0000    Y=             -1.4338    Z=              0.7428  Tot=              1.6148
 Quadrupole moment (field-independent basis, Debye-Ang):
   XX=            -13.3977   YY=            -11.6072   ZZ=            -12.8126
   XY=              0.0000   XZ=             -0.0000   YZ=              2.0588
 Traceless Quadrupole moment (field-independent basis, Debye-Ang):
   XX=             -0.7919   YY=              0.9987   ZZ=             -0.2068
   XY=              0.0000   XZ=             -0.0000   YZ=              2.0588
 Octapole moment (field-independent basis, Debye-Ang**2):
  XXX=             -0.0000  YYY=              0.1072  ZZZ=             -6.8152  XYY=             -0.0000
  XXY=             -0.1881  XXZ=             -1.5412  XZZ=             -0.0000  YZZ=             -1.3465
  YYZ=             -3.0398  XYZ=              0.0000
 Hexadecapole moment (field-independent basis, Debye-Ang**3):
 XXXX=            -19.1939 YYYY=            -18.9901 ZZZZ=            -60.3963 XXXY=              0.0000
 XXXZ=             -0.0000 YYYX=              0.0000 YYYZ=              2.1504 ZZZX=             -0.0000
 ZZZY=              2.1622 XXYY=             -6.6286 XXZZ=            -13.5987 YYZZ=            -11.9512
 XXYZ=             -0.4883 YYXZ=             -0.0000 ZZXY=              0.0000
 N-N= 4.034475612013D+01 E-N=-3.521056493073D+02  KE= 1.149255654418D+02
 Orbital energies and kinetic energies (alpha):
                                 1                 2
   1         O               -19.253176         29.132074
   2         O               -10.335103         15.970660
   3         O                -1.113240          2.524405
   4         O                -0.764184          1.554294
   5         O                -0.584018          1.586832
   6         O                -0.522940          1.156270
   7         O                -0.504676          1.547046
   8         O                -0.408053          1.844305
   9         O                -0.345253          2.146898
  10         V                 0.138146          0.908585
  11         V                 0.180112          0.949032
  12         V                 0.219776          0.767930
  13         V                 0.220894          0.820428
  14         V                 0.283897          1.623880
  15         V                 0.537079          1.297033
  16         V                 0.554321          1.295490
  17         V                 0.587191          2.311527
  18         V                 0.651359          2.048994
  19         V                 0.718654          2.033007
  20         V                 0.735745          2.202370
  21         V                 0.740280          2.240708
  22         V                 0.958560          2.416384
  23         V                 0.981735          2.639297
  24         V                 1.036493          1.957539
  25         V                 1.094689          2.921123
  26         V                 1.153230          2.566962
  27         V                 1.281430          2.310478
  28         V                 1.422821          2.129695
  29         V                 1.485910          2.022357
  30         V                 1.486519          2.231300
  31         V                 1.667644          2.292688
  32         V                 1.704493          2.648516
  33         V                 1.734975          2.970152
  34         V                 1.754934          2.614262
  35         V                 1.840606          2.936325
  36         V                 1.955310          2.851071
  37         V                 2.055748          3.202504
  38         V                 2.146733          3.871825
  39         V                 2.156148          2.878256
  40         V                 2.223442          3.514917
  41         V                 2.473986          4.212854
  42         V                 2.484816          4.153261
  43         V                 2.500540          4.215029
  44         V                 3.014529          4.446453
  45         V                 3.102401          4.557284
  46         V                 3.164981          4.755759
  47         V                 3.280086          5.046173
  48         V                 3.735978          5.554539
 Orbital energies and kinetic energies (beta):
                                 1                 2
   1         O               -19.253176         29.132074
   2         O               -10.335103         15.970660
   3         O                -1.113240          2.524405
   4         O                -0.764184          1.554294
   5         O                -0.584018          1.586832
   6         O                -0.522940          1.156270
   7         O                -0.504676          1.547046
   8         O                -0.408053          1.844305
   9         O                -0.345253          2.146898
  10         V                 0.138146          0.908585
  11         V                 0.180112          0.949032
  12         V                 0.219776          0.767930
  13         V                 0.220894          0.820428
  14         V                 0.283897          1.623880
  15         V                 0.537079          1.297033
  16         V                 0.554321          1.295490
  17         V                 0.587191          2.311527
  18         V                 0.651359          2.048994
  19         V                 0.718654          2.033007
  20         V                 0.735745          2.202370
  21         V                 0.740280          2.240708
  22         V                 0.958560          2.416384
  23         V                 0.981735          2.639297
  24         V                 1.036493          1.957539
  25         V                 1.094689          2.921123
  26         V                 1.153230          2.566962
  27         V                 1.281430          2.310478
  28         V                 1.422821          2.129695
  29         V                 1.485910          2.022357
  30         V                 1.486519          2.231300
  31         V                 1.667644          2.292688
  32         V                 1.704493          2.648516
  33         V                 1.734975          2.970152
  34         V                 1.754934          2.614262
  35         V                 1.840606          2.936325
  36         V                 1.955310          2.851071
  37         V                 2.055748          3.202504
  38         V                 2.146733          3.871825
  39         V                 2.156148          2.878256
  40         V                 2.223442          3.514917
  41         V                 2.473986          4.212854
  42         V                 2.484816          4.153261
  43         V                 2.500540          4.215029
  44         V                 3.014529          4.446453
  45         V                 3.102401          4.557284
  46         V                 3.164981          4.755759
  47         V                 3.280086          5.046173
  48         V                 3.735978          5.554539
 Total kinetic energy from orbitals= 1.149255654418D+02
                          Isotropic Fermi Contact Couplings
        Atom                 a.u.       MegaHertz       Gauss      10(-4) cm-1
     1  C(13)              0.00000       0.00000       0.00000       0.00000
     2  O(17)              0.00000      -0.00000      -0.00000      -0.00000
     3  H(1)               0.00000       0.00000       0.00000       0.00000
     4  H(1)               0.00000       0.00000       0.00000       0.00000
     5  H(1)               0.00000       0.00000       0.00000       0.00000
     6  H(1)               0.00000       0.00000       0.00000       0.00000
 --------------------------------------------------------
       Center         ----  Spin Dipole Couplings  ----
                      3XX-RR        3YY-RR        3ZZ-RR
 --------------------------------------------------------
     1   Atom        0.000000      0.000000      0.000000
     2   Atom        0.000000      0.000000      0.000000
     3   Atom        0.000000      0.000000      0.000000
     4   Atom        0.000000      0.000000      0.000000
     5   Atom        0.000000      0.000000      0.000000
     6   Atom        0.000000      0.000000      0.000000
 --------------------------------------------------------
                        XY            XZ            YZ
 --------------------------------------------------------
     1   Atom        0.000000      0.000000      0.000000
     2   Atom        0.000000      0.000000      0.000000
     3   Atom        0.000000      0.000000      0.000000
     4   Atom        0.000000      0.000000      0.000000
     5   Atom        0.000000      0.000000      0.000000
     6   Atom        0.000000      0.000000      0.000000
 --------------------------------------------------------


 ---------------------------------------------------------------------------------
              Anisotropic Spin Dipole Couplings in Principal Axis System
 ---------------------------------------------------------------------------------

       Atom             a.u.   MegaHertz   Gauss  10(-4) cm-1        Axes

              Baa     0.0000     0.000     0.000     0.000  1.0000  0.0000  0.0000
     1 C(13)  Bbb     0.0000     0.000     0.000     0.000 -0.0000  1.0000  0.0000
              Bcc     0.0000     0.000     0.000     0.000  0.0000  0.0000  1.0000
 
              Baa     0.0000    -0.000    -0.000    -0.000  1.0000  0.0000  0.0000
     2 O(17)  Bbb     0.0000    -0.000    -0.000    -0.000 -0.0000  1.0000  0.0000
              Bcc     0.0000    -0.000    -0.000    -0.000  0.0000  0.0000  1.0000
 
              Baa     0.0000     0.000     0.000     0.000  1.0000  0.0000  0.0000
     3 H(1)   Bbb     0.0000     0.000     0.000     0.000 -0.0000  1.0000  0.0000
              Bcc     0.0000     0.000     0.000     0.000  0.0000  0.0000  1.0000
 
              Baa     0.0000     0.000     0.000     0.000  1.0000  0.0000  0.0000
     4 H(1)   Bbb     0.0000     0.000     0.000     0.000 -0.0000  1.0000  0.0000
              Bcc     0.0000     0.000     0.000     0.000  0.0000  0.0000  1.0000
 
              Baa     0.0000     0.000     0.000     0.000  1.0000  0.0000  0.0000
     5 H(1)   Bbb     0.0000     0.000     0.000     0.000 -0.0000  1.0000  0.0000
              Bcc     0.0000     0.000     0.000     0.000  0.0000  0.0000  1.0000
 
              Baa     0.0000     0.000     0.000     0.000  1.0000  0.0000  0.0000
     6 H(1)   Bbb     0.0000     0.000     0.000     0.000 -0.0000  1.0000  0.0000
              Bcc     0.0000     0.000     0.000     0.000  0.0000  0.0000  1.0000
 

 ---------------------------------------------------------------------------------

 No NMR shielding tensors so no spin-rotation constants.
 Leave Link  601 at Tue Jul  7 12:57:01 2026, MaxMem=  1073741824 cpu:               0.2 elap:               0.1
 (Enter /home/jianhua/gaussian_gpu/g16/l9999.exe)
 Unable to Open any file for archive entry.
 1\1\GINC-SLADE190455\SP\UwB97XD\CC-pVDZ\C1H4O1\GUEST\07-Jul-2026\0\\#P
  UWB97XD/cc-pVDZ SCF=(MaxCycle=2000,XQC) NoSymm Pop=Full GFInput GFPri
 nt Density=Current 5D 7F\\MeOH neutral wb97xd/cc-pVDZ\\0,1\C,0,0.,-0.0
 147269,0.7156012\O,0,0.,0.0695525,-0.6801439\H,0,0.,1.0112743,1.137660
 2\H,0,0.,-0.8665191,-1.0095561\H,0,0.9151188,-0.5366486,1.0703452\H,0,
 -0.9151188,-0.5366486,1.0703452\\Version=ES64L-G16RevC.02\HF=-115.6854
 882\S2=0.\S2-1=0.\S2A=0.\RMSD=3.301e-09\Dipole=0.,-0.5641026,0.2922538
 \Quadrupole=-0.588742,0.7424814,-0.1537394,0.,0.,1.5306599\PG=CS [SG(C
 1H2O1),X(H2)]\\@
 The archive entry for this job was punched.


 FOR THE NATURE OF THE CHEMICAL BOND
 IS THE PROBLEM AT THE HEART OF ALL CHEMISTRY.

                     -- BRYCE CRAWFORD, JR., 1953
 Job cpu time:       0 days  0 hours  0 minutes  4.2 seconds.
 Elapsed time:       0 days  0 hours  0 minutes  1.3 seconds.
 File lengths (MBytes):  RWF=      6 Int=      0 D2E=      0 Chk=      1 Scr=      1
 Normal termination of Gaussian 16 at Tue Jul  7 12:57:01 2026.
