 Entering Gaussian System, Link 0=g16
 Input=MeOH_i.in
 Output=MeOH_i.log
 Initial command:
 /home/jianhua/gaussian_gpu/g16/l1.exe "/home/guest/scratch/Gau-1645817.inp" -scrdir="/home/guest/scratch/"
 Entering Link 1 = /home/jianhua/gaussian_gpu/g16/l1.exe PID=   1645819.
  
 Copyright (c) 1988-2021, Gaussian, Inc.  All Rights Reserved.
  
 This is part of the Gaussian(R) 16 program.  It is based on
 the Gaussian(R) 09 system (copyright 2009, Gaussian, Inc.),
 the Gaussian(R) 03 system (copyright 2003, Gaussian, Inc.),
 the Gaussian(R) 98 system (copyright 1998, Gaussian, Inc.),
 the Gaussian(R) 94 system (copyright 1995, Gaussian, Inc.),
 the Gaussian 92(TM) system (copyright 1992, Gaussian, Inc.),
 the Gaussian 90(TM) system (copyright 1990, Gaussian, Inc.),
 the Gaussian 88(TM) system (copyright 1988, Gaussian, Inc.),
 the Gaussian 86(TM) system (copyright 1986, Carnegie Mellon
 University), and the Gaussian 82(TM) system (copyright 1983,
 Carnegie Mellon University). Gaussian is a federally registered
 trademark of Gaussian, Inc.
  
 This software contains proprietary and confidential information,
 including trade secrets, belonging to Gaussian, Inc.
  
 This software is provided under written license and may be
 used, copied, transmitted, or stored only in accord with that
 written license.
  
 The following legend is applicable only to US Government
 contracts under FAR:
  
                    RESTRICTED RIGHTS LEGEND
  
 Use, reproduction and disclosure by the US Government is
 subject to restrictions as set forth in subparagraphs (a)
 and (c) of the Commercial Computer Software - Restricted
 Rights clause in FAR 52.227-19.
  
 Gaussian, Inc.
 340 Quinnipiac St., Bldg. 40, Wallingford CT 06492
  
  
 ---------------------------------------------------------------
 Warning -- This program may not be used in any manner that
 competes with the business of Gaussian, Inc. or will provide
 assistance to any competitor of Gaussian, Inc.  The licensee
 of this program is prohibited from giving any competitor of
 Gaussian, Inc. access to this program.  By using this program,
 the user acknowledges that Gaussian, Inc. is engaged in the
 business of creating and licensing software in the field of
 computational chemistry and represents and warrants to the
 licensee that it is not a competitor of Gaussian, Inc. and that
 it will not use this program in any manner prohibited above.
 ---------------------------------------------------------------
  

 Cite this work as:
 Gaussian 16, Revision C.02,
 M. J. Frisch, G. W. Trucks, H. B. Schlegel, G. E. Scuseria, 
 M. A. Robb, J. R. Cheeseman, G. Scalmani, V. Barone, 
 G. A. Petersson, H. Nakatsuji, X. Li, M. Caricato, A. V. Marenich, 
 J. Bloino, B. G. Janesko, R. Gomperts, B. Mennucci, H. P. Hratchian, 
 J. V. Ortiz, A. F. Izmaylov, J. L. Sonnenberg, D. Williams-Young, 
 F. Ding, F. Lipparini, F. Egidi, J. Goings, B. Peng, A. Petrone, 
 T. Henderson, D. Ranasinghe, V. G. Zakrzewski, J. Gao, N. Rega, 
 G. Zheng, W. Liang, M. Hada, M. Ehara, K. Toyota, R. Fukuda, 
 J. Hasegawa, M. Ishida, T. Nakajima, Y. Honda, O. Kitao, H. Nakai, 
 T. Vreven, K. Throssell, J. A. Montgomery, Jr., J. E. Peralta, 
 F. Ogliaro, M. J. Bearpark, J. J. Heyd, E. N. Brothers, K. N. Kudin, 
 V. N. Staroverov, T. A. Keith, R. Kobayashi, J. Normand, 
 K. Raghavachari, A. P. Rendell, J. C. Burant, S. S. Iyengar, 
 J. Tomasi, M. Cossi, J. M. Millam, M. Klene, C. Adamo, R. Cammi, 
 J. W. Ochterski, R. L. Martin, K. Morokuma, O. Farkas, 
 J. B. Foresman, and D. J. Fox, Gaussian, Inc., Wallingford CT, 2019.
 
 ******************************************
 Gaussian 16:  ES64L-G16RevC.02  7-Dec-2021
                 7-Jul-2026 
 ******************************************
 %chk=MeOH_i.chk
 %rwf=MeOH_i.rwf
 %nprocshared=4
 Will use up to    4 processors via shared memory.
 %mem=8GB
 ----------------------------------------------------------------------
 #P TDA=(NStates=6) WB97XD/cc-pVDZ SCF=(MaxCycle=2000,XQC) NoSymm Pop=F
 ull GFInput GFPrint Density=Current 5D 7F
 ----------------------------------------------------------------------
 1/30=1,38=1,172=1/1;
 2/12=2,15=1,17=6,18=5,40=1/2;
 3/5=16,8=11,11=9,24=110,25=1,30=1,71=1,74=-58/1,2,3,8;
 4//1;
 5/5=2,7=2000,8=3,13=1,38=5/2,8;
 8/6=1,10=1,108=6/1;
 9/15=1,41=6,42=1/14;
 10/5=4,13=10,31=1/2;
 6/7=3,22=-1/1;
 99/5=1,9=1/99;
 Leave Link    1 at Tue Jul  7 12:55:42 2026, MaxMem=  1073741824 cpu:               0.0 elap:               0.0
 (Enter /home/jianhua/gaussian_gpu/g16/l101.exe)
 ------------------------------------------
 TDA-TDDFT MeOH ion wb97xd/cc-pVDZ, 6 roots
 ------------------------------------------
 Symbolic Z-matrix:
 Charge =  1 Multiplicity = 2
 C                     0.       -0.01473   0.7156 
 O                     0.        0.06955  -0.68014 
 H                     0.        1.01127   1.13766 
 H                     0.       -0.86652  -1.00956 
 H                     0.91512  -0.53665   1.07035 
 H                    -0.91512  -0.53665   1.07035 
 
 ITRead=  0  0  0  0  0  0
 MicOpt= -1 -1 -1 -1 -1 -1
 NAtoms=      6 NQM=        6 NQMF=       0 NMMI=      0 NMMIF=      0
                NMic=       0 NMicF=      0.
                    Isotopes and Nuclear Properties:
 (Nuclear quadrupole moments (NQMom) in fm**2, nuclear magnetic moments (NMagM)
  in nuclear magnetons)

  Atom         1           2           3           4           5           6
 IAtWgt=          12          16           1           1           1           1
 AtmWgt=  12.0000000  15.9949146   1.0078250   1.0078250   1.0078250   1.0078250
 NucSpn=           0           0           1           1           1           1
 AtZEff=  -0.0000000  -0.0000000  -0.0000000  -0.0000000  -0.0000000  -0.0000000
 NQMom=    0.0000000   0.0000000   0.0000000   0.0000000   0.0000000   0.0000000
 NMagM=    0.0000000   0.0000000   2.7928460   2.7928460   2.7928460   2.7928460
 AtZNuc=   6.0000000   8.0000000   1.0000000   1.0000000   1.0000000   1.0000000
 Leave Link  101 at Tue Jul  7 12:55:43 2026, MaxMem=  1073741824 cpu:               0.1 elap:               0.1
 (Enter /home/jianhua/gaussian_gpu/g16/l202.exe)
                          Input orientation:                          
 ---------------------------------------------------------------------
 Center     Atomic      Atomic             Coordinates (Angstroms)
 Number     Number       Type             X           Y           Z
 ---------------------------------------------------------------------
      1          6           0        0.000000   -0.014727    0.715601
      2          8           0        0.000000    0.069553   -0.680144
      3          1           0        0.000000    1.011274    1.137660
      4          1           0        0.000000   -0.866519   -1.009556
      5          1           0        0.915119   -0.536649    1.070345
      6          1           0       -0.915119   -0.536649    1.070345
 ---------------------------------------------------------------------
                    Distance matrix (angstroms):
                    1          2          3          4          5
     1  C    0.000000
     2  O    1.398287   0.000000
     3  H    1.109420   2.047255   0.000000
     4  H    1.923985   0.992342   2.852481   0.000000
     5  H    1.111615   2.066188   1.799455   2.296137   0.000000
     6  H    1.111615   2.066188   1.799455   2.296137   1.830238
                    6
     6  H    0.000000
 Symmetry turned off by external request.
 Stoichiometry    CH4O(1+,2)
 Framework group  CS[SG(CH2O),X(H2)]
 Deg. of freedom     8
 Full point group                 CS      NOp   2
 Rotational constants (GHZ):         122.1941474          25.4304664          24.4938881
 Leave Link  202 at Tue Jul  7 12:55:43 2026, MaxMem=  1073741824 cpu:               0.0 elap:               0.0
 (Enter /home/jianhua/gaussian_gpu/g16/l301.exe)
 Standard basis: CC-pVDZ (5D, 7F)
 Ernie: Thresh=  0.10000D-02 Tol=  0.10000D-05 Strict=F.
 Ernie:  4 primitive shells out of 64 were deleted.
 AO basis set in the form of general basis input (Overlap normalization):
      1 0
 S   7 1.00       0.000000000000
      0.6665000000D+04  0.6935163173D-03
      0.1000000000D+04  0.5341502433D-02
      0.2280000000D+03  0.2713667141D-01
      0.6471000000D+02  0.1019923853D+00
      0.2106000000D+02  0.2755086365D+00
      0.7495000000D+01  0.4510864331D+00
      0.2797000000D+01  0.2875657448D+00
 S   7 1.00       0.000000000000
      0.6665000000D+04  0.7733547404D-05
      0.2280000000D+03  0.2780721367D-03
      0.6471000000D+02 -0.2578756542D-02
      0.2106000000D+02 -0.8950876838D-02
      0.7495000000D+01 -0.1060588547D+00
      0.2797000000D+01 -0.1315176856D+00
      0.5215000000D+00  0.1099486598D+01
 S   1 1.00       0.000000000000
      0.1596000000D+00  0.1000000000D+01
 P   3 1.00       0.000000000000
      0.9439000000D+01  0.5697925159D-01
      0.2002000000D+01  0.3132072115D+00
      0.5456000000D+00  0.7603767417D+00
 P   1 1.00       0.000000000000
      0.1517000000D+00  0.1000000000D+01
 D   1 1.00       0.000000000000
      0.5500000000D+00  0.1000000000D+01
 ****
      2 0
 S   7 1.00       0.000000000000
      0.1172000000D+05  0.7118644339D-03
      0.1759000000D+04  0.5485201992D-02
      0.4008000000D+03  0.2790992963D-01
      0.1137000000D+03  0.1051332075D+00
      0.3703000000D+02  0.2840024898D+00
      0.1327000000D+02  0.4516739459D+00
      0.5025000000D+01  0.2732081255D+00
 S   7 1.00       0.000000000000
      0.1172000000D+05  0.7690300460D-05
      0.4008000000D+03  0.3134845790D-03
      0.1137000000D+03 -0.2966148530D-02
      0.3703000000D+02 -0.1087535430D-01
      0.1327000000D+02 -0.1207538168D+00
      0.5025000000D+01 -0.1062752639D+00
      0.1013000000D+01  0.1095975478D+01
 S   1 1.00       0.000000000000
      0.3023000000D+00  0.1000000000D+01
 P   3 1.00       0.000000000000
      0.1770000000D+02  0.6267916628D-01
      0.3854000000D+01  0.3335365659D+00
      0.1046000000D+01  0.7412396416D+00
 P   1 1.00       0.000000000000
      0.2753000000D+00  0.1000000000D+01
 D   1 1.00       0.000000000000
      0.1185000000D+01  0.1000000000D+01
 ****
      3 0
 S   3 1.00       0.000000000000
      0.1301000000D+02  0.3349872639D-01
      0.1962000000D+01  0.2348008012D+00
      0.4446000000D+00  0.8136829579D+00
 S   1 1.00       0.000000000000
      0.1220000000D+00  0.1000000000D+01
 P   1 1.00       0.000000000000
      0.7270000000D+00  0.1000000000D+01
 ****
      4 0
 S   3 1.00       0.000000000000
      0.1301000000D+02  0.3349872639D-01
      0.1962000000D+01  0.2348008012D+00
      0.4446000000D+00  0.8136829579D+00
 S   1 1.00       0.000000000000
      0.1220000000D+00  0.1000000000D+01
 P   1 1.00       0.000000000000
      0.7270000000D+00  0.1000000000D+01
 ****
      5 0
 S   3 1.00       0.000000000000
      0.1301000000D+02  0.3349872639D-01
      0.1962000000D+01  0.2348008012D+00
      0.4446000000D+00  0.8136829579D+00
 S   1 1.00       0.000000000000
      0.1220000000D+00  0.1000000000D+01
 P   1 1.00       0.000000000000
      0.7270000000D+00  0.1000000000D+01
 ****
      6 0
 S   3 1.00       0.000000000000
      0.1301000000D+02  0.3349872639D-01
      0.1962000000D+01  0.2348008012D+00
      0.4446000000D+00  0.8136829579D+00
 S   1 1.00       0.000000000000
      0.1220000000D+00  0.1000000000D+01
 P   1 1.00       0.000000000000
      0.7270000000D+00  0.1000000000D+01
 ****

 AO basis set (Overlap normalization):
 Atom C1       Shell     1 S   7     bf    1 -     1          0.000000000000         -0.027829807664          1.352290282410
      0.6665000000D+04  0.6935163173D-03
      0.1000000000D+04  0.5341502433D-02
      0.2280000000D+03  0.2713667141D-01
      0.6471000000D+02  0.1019923853D+00
      0.2106000000D+02  0.2755086365D+00
      0.7495000000D+01  0.4510864331D+00
      0.2797000000D+01  0.2875657448D+00
 Atom C1       Shell     2 S   7     bf    2 -     2          0.000000000000         -0.027829807664          1.352290282410
      0.6665000000D+04  0.7733547404D-05
      0.2280000000D+03  0.2780721367D-03
      0.6471000000D+02 -0.2578756542D-02
      0.2106000000D+02 -0.8950876838D-02
      0.7495000000D+01 -0.1060588547D+00
      0.2797000000D+01 -0.1315176856D+00
      0.5215000000D+00  0.1099486598D+01
 Atom C1       Shell     3 S   1     bf    3 -     3          0.000000000000         -0.027829807664          1.352290282410
      0.1596000000D+00  0.1000000000D+01
 Atom C1       Shell     4 P   3     bf    4 -     6          0.000000000000         -0.027829807664          1.352290282410
      0.9439000000D+01  0.5697925159D-01
      0.2002000000D+01  0.3132072115D+00
      0.5456000000D+00  0.7603767417D+00
 Atom C1       Shell     5 P   1     bf    7 -     9          0.000000000000         -0.027829807664          1.352290282410
      0.1517000000D+00  0.1000000000D+01
 Atom C1       Shell     6 D   1     bf   10 -    14          0.000000000000         -0.027829807664          1.352290282410
      0.5500000000D+00  0.1000000000D+01
 Atom O2       Shell     7 S   7     bf   15 -    15          0.000000000000          0.131435176279         -1.285285696294
      0.1172000000D+05  0.7118644339D-03
      0.1759000000D+04  0.5485201992D-02
      0.4008000000D+03  0.2790992963D-01
      0.1137000000D+03  0.1051332075D+00
      0.3703000000D+02  0.2840024898D+00
      0.1327000000D+02  0.4516739459D+00
      0.5025000000D+01  0.2732081255D+00
 Atom O2       Shell     8 S   7     bf   16 -    16          0.000000000000          0.131435176279         -1.285285696294
      0.1172000000D+05  0.7690300460D-05
      0.4008000000D+03  0.3134845790D-03
      0.1137000000D+03 -0.2966148530D-02
      0.3703000000D+02 -0.1087535430D-01
      0.1327000000D+02 -0.1207538168D+00
      0.5025000000D+01 -0.1062752639D+00
      0.1013000000D+01  0.1095975478D+01
 Atom O2       Shell     9 S   1     bf   17 -    17          0.000000000000          0.131435176279         -1.285285696294
      0.3023000000D+00  0.1000000000D+01
 Atom O2       Shell    10 P   3     bf   18 -    20          0.000000000000          0.131435176279         -1.285285696294
      0.1770000000D+02  0.6267916628D-01
      0.3854000000D+01  0.3335365659D+00
      0.1046000000D+01  0.7412396416D+00
 Atom O2       Shell    11 P   1     bf   21 -    23          0.000000000000          0.131435176279         -1.285285696294
      0.2753000000D+00  0.1000000000D+01
 Atom O2       Shell    12 D   1     bf   24 -    28          0.000000000000          0.131435176279         -1.285285696294
      0.1185000000D+01  0.1000000000D+01
 Atom H3       Shell    13 S   3     bf   29 -    29          0.000000000000          1.911031463811          2.149866200818
      0.1301000000D+02  0.3349872639D-01
      0.1962000000D+01  0.2348008012D+00
      0.4446000000D+00  0.8136829579D+00
 Atom H3       Shell    14 S   1     bf   30 -    30          0.000000000000          1.911031463811          2.149866200818
      0.1220000000D+00  0.1000000000D+01
 Atom H3       Shell    15 P   1     bf   31 -    33          0.000000000000          1.911031463811          2.149866200818
      0.7270000000D+00  0.1000000000D+01
 Atom H4       Shell    16 S   3     bf   34 -    34          0.000000000000         -1.637483780705         -1.907784536384
      0.1301000000D+02  0.3349872639D-01
      0.1962000000D+01  0.2348008012D+00
      0.4446000000D+00  0.8136829579D+00
 Atom H4       Shell    17 S   1     bf   35 -    35          0.000000000000         -1.637483780705         -1.907784536384
      0.1220000000D+00  0.1000000000D+01
 Atom H4       Shell    18 P   1     bf   36 -    38          0.000000000000         -1.637483780705         -1.907784536384
      0.7270000000D+00  0.1000000000D+01
 Atom H5       Shell    19 S   3     bf   39 -    39          1.729323903441         -1.014118879131          2.022659286743
      0.1301000000D+02  0.3349872639D-01
      0.1962000000D+01  0.2348008012D+00
      0.4446000000D+00  0.8136829579D+00
 Atom H5       Shell    20 S   1     bf   40 -    40          1.729323903441         -1.014118879131          2.022659286743
      0.1220000000D+00  0.1000000000D+01
 Atom H5       Shell    21 P   1     bf   41 -    43          1.729323903441         -1.014118879131          2.022659286743
      0.7270000000D+00  0.1000000000D+01
 Atom H6       Shell    22 S   3     bf   44 -    44         -1.729323903441         -1.014118879131          2.022659286743
      0.1301000000D+02  0.3349872639D-01
      0.1962000000D+01  0.2348008012D+00
      0.4446000000D+00  0.8136829579D+00
 Atom H6       Shell    23 S   1     bf   45 -    45         -1.729323903441         -1.014118879131          2.022659286743
      0.1220000000D+00  0.1000000000D+01
 Atom H6       Shell    24 P   1     bf   46 -    48         -1.729323903441         -1.014118879131          2.022659286743
      0.7270000000D+00  0.1000000000D+01
    48 basis functions,    94 primitive gaussians,    50 cartesian basis functions
     9 alpha electrons        8 beta electrons
       nuclear repulsion energy        40.3456006110 Hartrees.
 IExCor= 4639 DFT=T Ex+Corr=wB97XD ExCW=0 ScaHFX=  1.000000
 ScaDFX=  1.000000  1.000000  1.000000  1.000000 ScalE2=  1.000000  1.000000
 IRadAn=      5 IRanWt=     -1 IRanGd=            0 ICorTp=0 IEmpDi=121
 HFx  wShort=  0.000000 wLong=  0.200000 cFull=  0.222036 cShort=  0.000000 cLong=  0.777964
 DFx  wShort=  0.000000 wLong=  0.200000 cFull=  0.000000 cShort=  0.000000 cLong=  1.000000
 NAtoms=    6 NActive=    6 NUniq=    6 SFac= 1.00D+00 NAtFMM=   60 NAOKFM=F Big=F
 Integral buffers will be    131072 words long.
 Raffenetti 2 integral format.
 Two-electron integral symmetry is turned off.
 R6Disp:  Grimme-D2 Dispersion energy=       -0.0008444909 Hartrees.
 Nuclear repulsion after empirical dispersion term =       40.3447561201 Hartrees.
 Leave Link  301 at Tue Jul  7 12:55:43 2026, MaxMem=  1073741824 cpu:               0.0 elap:               0.0
 (Enter /home/jianhua/gaussian_gpu/g16/l302.exe)
 NPDir=0 NMtPBC=     1 NCelOv=     1 NCel=       1 NClECP=     1 NCelD=      1
         NCelK=      1 NCelE2=     1 NClLst=     1 CellRange=     0.0.
 One-electron integrals computed using PRISM.
 NBasis=    48 RedAO= T EigKep=  1.66D-02  NBF=    48
 NBsUse=    48 1.00D-06 EigRej= -1.00D+00 NBFU=    48
 Precomputing XC quadrature grid using
 IXCGrd= 4 IRadAn=           5 IRanWt=          -1 IRanGd=           0 AccXCQ= 0.00D+00.
 Generated NRdTot=       0 NPtTot=           0 NUsed=           0 NTot=          32
 NSgBfM=    50    50    50    50    50 MxSgAt=     6 MxSgA2=     6.
 Leave Link  302 at Tue Jul  7 12:55:43 2026, MaxMem=  1073741824 cpu:               0.2 elap:               0.1
 (Enter /home/jianhua/gaussian_gpu/g16/l303.exe)
 DipDrv:  MaxL=1.
 Leave Link  303 at Tue Jul  7 12:55:43 2026, MaxMem=  1073741824 cpu:               0.0 elap:               0.0
 (Enter /home/jianhua/gaussian_gpu/g16/l308.exe)
 Leave Link  308 at Tue Jul  7 12:55:43 2026, MaxMem=  1073741824 cpu:               0.0 elap:               0.0
 (Enter /home/jianhua/gaussian_gpu/g16/l401.exe)
 ExpMin= 1.22D-01 ExpMax= 1.17D+04 ExpMxC= 4.01D+02 IAcc=3 IRadAn=         5 AccDes= 0.00D+00
 Harris functional with IExCor= 4639 and IRadAn=       5 diagonalized for initial guess.
 HarFok:  IExCor= 4639 AccDes= 0.00D+00 IRadAn=         5 IDoV= 1 UseB2=F ITyADJ=14
 ICtDFT=  3500011 ScaDFX=  1.000000  1.000000  1.000000  1.000000
 FoFCou: FMM=F IPFlag=           0 FMFlag=      100000 FMFlg1=           0
         NFxFlg=           0 DoJE=T BraDBF=F KetDBF=T FulRan=T
         wScrn=  0.000000 ICntrl=       500 IOpCl=  0 I1Cent=   200000004 NGrid=           0
         NMat0=    1 NMatS0=      1 NMatT0=    0 NMatD0=    1 NMtDS0=    0 NMtDT0=    0
 Symmetry not used in FoFCou.
 Harris En= -110.786072847231    
 JPrj=0 DoOrth=F DoCkMO=F.
 Initial guess <Sx>= 0.0000 <Sy>= 0.0000 <Sz>= 0.5000 <S**2>= 0.7500 S= 0.5000
 Leave Link  401 at Tue Jul  7 12:55:43 2026, MaxMem=  1073741824 cpu:               0.5 elap:               0.2
 (Enter /home/jianhua/gaussian_gpu/g16/l502.exe)
 Keep R1 and R2 ints in memory in canonical form, NReq=6318726.
 FoFCou: FMM=F IPFlag=           0 FMFlag=           0 FMFlg1=           0
         NFxFlg=           0 DoJE=F BraDBF=F KetDBF=F FulRan=T
         wScrn=  0.000000 ICntrl=       600 IOpCl=  0 I1Cent=           0 NGrid=           0
         NMat0=    1 NMatS0=   1176 NMatT0=    0 NMatD0=    1 NMtDS0=    0 NMtDT0=    0
 Symmetry not used in FoFCou.
 Two-electron integral symmetry not used.
 UHF open shell SCF:
 Using DIIS extrapolation, IDIIS=  1040.
 NGot=  1073741824 LenX=  1070967480 LenY=  1070964539
 Requested convergence on RMS density matrix=1.00D-08 within 128 cycles.
 Requested convergence on MAX density matrix=1.00D-06.
 Requested convergence on             energy=1.00D-06.
 No special actions if energy rises.
 Integral accuracy reduced to 1.0D-05 until final iterations.

 Cycle   1  Pass 0  IDiag  1:
 E= -115.165553007211    
 DIIS: error= 5.43D-02 at cycle   1 NSaved=   1.
 NSaved= 1 IEnMin= 1 EnMin= -115.165553007211     IErMin= 1 ErrMin= 5.43D-02
 ErrMax= 5.43D-02  0.00D+00 EMaxC= 1.00D-01 BMatC= 7.18D-01 BMatP= 7.18D-01
 IDIUse=3 WtCom= 4.57D-01 WtEn= 5.43D-01
 Coeff-Com:  0.100D+01
 Coeff-En:   0.100D+01
 Coeff:      0.100D+01
 Gap=     0.819 Goal=   None    Shift=    0.000
 Gap=     0.277 Goal=   None    Shift=    0.000
 GapD=    0.277 DampG=1.000 DampE=0.500 DampFc=0.5000 IDamp=-1.
 Damping current iteration by 5.00D-01
 RMSDP=1.04D-02 MaxDP=1.86D-01              OVMax= 3.80D-01

 Cycle   2  Pass 0  IDiag  1:
 E= -115.219251875673     Delta-E=       -0.053698868462 Rises=F Damp=T
 DIIS: error= 1.75D-02 at cycle   2 NSaved=   2.
 NSaved= 2 IEnMin= 2 EnMin= -115.219251875673     IErMin= 2 ErrMin= 1.75D-02
 ErrMax= 1.75D-02  0.00D+00 EMaxC= 1.00D-01 BMatC= 5.11D-02 BMatP= 7.18D-01
 IDIUse=3 WtCom= 8.25D-01 WtEn= 1.75D-01
 Coeff-Com:  0.563D-01 0.944D+00
 Coeff-En:   0.140D+00 0.860D+00
 Coeff:      0.710D-01 0.929D+00
 Gap=     0.635 Goal=   None    Shift=    0.000
 Gap=     0.297 Goal=   None    Shift=    0.000
 RMSDP=2.75D-03 MaxDP=4.69D-02 DE=-5.37D-02 OVMax= 2.53D-01

 Cycle   3  Pass 0  IDiag  1:
 E= -115.293470334271     Delta-E=       -0.074218458597 Rises=F Damp=F
 DIIS: error= 6.76D-03 at cycle   3 NSaved=   3.
 NSaved= 3 IEnMin= 3 EnMin= -115.293470334271     IErMin= 3 ErrMin= 6.76D-03
 ErrMax= 6.76D-03  0.00D+00 EMaxC= 1.00D-01 BMatC= 1.17D-02 BMatP= 5.11D-02
 IDIUse=3 WtCom= 9.32D-01 WtEn= 6.76D-02
 Coeff-Com: -0.573D-01 0.252D+00 0.805D+00
 Coeff-En:   0.000D+00 0.000D+00 0.100D+01
 Coeff:     -0.535D-01 0.235D+00 0.818D+00
 Gap=     0.606 Goal=   None    Shift=    0.000
 Gap=     0.296 Goal=   None    Shift=    0.000
 RMSDP=9.18D-04 MaxDP=1.33D-02 DE=-7.42D-02 OVMax= 1.67D-02

 Cycle   4  Pass 0  IDiag  1:
 E= -115.295810897385     Delta-E=       -0.002340563115 Rises=F Damp=F
 DIIS: error= 2.08D-03 at cycle   4 NSaved=   4.
 NSaved= 4 IEnMin= 4 EnMin= -115.295810897385     IErMin= 4 ErrMin= 2.08D-03
 ErrMax= 2.08D-03  0.00D+00 EMaxC= 1.00D-01 BMatC= 8.48D-04 BMatP= 1.17D-02
 IDIUse=3 WtCom= 9.79D-01 WtEn= 2.08D-02
 Coeff-Com: -0.215D-01 0.608D-02 0.229D+00 0.786D+00
 Coeff-En:   0.000D+00 0.000D+00 0.000D+00 0.100D+01
 Coeff:     -0.211D-01 0.596D-02 0.224D+00 0.791D+00
 Gap=     0.609 Goal=   None    Shift=    0.000
 Gap=     0.301 Goal=   None    Shift=    0.000
 RMSDP=3.04D-04 MaxDP=5.62D-03 DE=-2.34D-03 OVMax= 1.10D-02

 Cycle   5  Pass 0  IDiag  1:
 E= -115.296083465572     Delta-E=       -0.000272568186 Rises=F Damp=F
 DIIS: error= 6.41D-04 at cycle   5 NSaved=   5.
 NSaved= 5 IEnMin= 5 EnMin= -115.296083465572     IErMin= 5 ErrMin= 6.41D-04
 ErrMax= 6.41D-04  0.00D+00 EMaxC= 1.00D-01 BMatC= 7.10D-05 BMatP= 8.48D-04
 IDIUse=3 WtCom= 9.94D-01 WtEn= 6.41D-03
 Coeff-Com:  0.899D-03-0.672D-02-0.732D-01-0.222D-01 0.110D+01
 Coeff-En:   0.000D+00 0.000D+00 0.000D+00 0.000D+00 0.100D+01
 Coeff:      0.894D-03-0.668D-02-0.728D-01-0.221D-01 0.110D+01
 Gap=     0.607 Goal=   None    Shift=    0.000
 Gap=     0.301 Goal=   None    Shift=    0.000
 RMSDP=1.28D-04 MaxDP=2.52D-03 DE=-2.73D-04 OVMax= 5.89D-03

 Cycle   6  Pass 0  IDiag  1:
 E= -115.296127394555     Delta-E=       -0.000043928983 Rises=F Damp=F
 DIIS: error= 3.21D-04 at cycle   6 NSaved=   6.
 NSaved= 6 IEnMin= 6 EnMin= -115.296127394555     IErMin= 6 ErrMin= 3.21D-04
 ErrMax= 3.21D-04  0.00D+00 EMaxC= 1.00D-01 BMatC= 1.39D-05 BMatP= 7.10D-05
 IDIUse=3 WtCom= 9.97D-01 WtEn= 3.21D-03
 Coeff-Com:  0.362D-03 0.502D-02-0.323D-01-0.107D+00-0.915D-01 0.123D+01
 Coeff-En:   0.000D+00 0.000D+00 0.000D+00 0.000D+00 0.000D+00 0.100D+01
 Coeff:      0.361D-03 0.501D-02-0.322D-01-0.107D+00-0.912D-01 0.122D+01
 Gap=     0.607 Goal=   None    Shift=    0.000
 Gap=     0.301 Goal=   None    Shift=    0.000
 RMSDP=7.28D-05 MaxDP=1.66D-03 DE=-4.39D-05 OVMax= 4.37D-03

 Cycle   7  Pass 0  IDiag  1:
 E= -115.296139588413     Delta-E=       -0.000012193858 Rises=F Damp=F
 DIIS: error= 1.18D-04 at cycle   7 NSaved=   7.
 NSaved= 7 IEnMin= 7 EnMin= -115.296139588413     IErMin= 7 ErrMin= 1.18D-04
 ErrMax= 1.18D-04  0.00D+00 EMaxC= 1.00D-01 BMatC= 2.45D-06 BMatP= 1.39D-05
 IDIUse=3 WtCom= 9.99D-01 WtEn= 1.18D-03
 Coeff-Com: -0.187D-02 0.259D-02 0.193D-01 0.418D-01-0.127D+00-0.461D+00
 Coeff-Com:  0.153D+01
 Coeff-En:   0.000D+00 0.000D+00 0.000D+00 0.000D+00 0.000D+00 0.000D+00
 Coeff-En:   0.100D+01
 Coeff:     -0.187D-02 0.259D-02 0.193D-01 0.418D-01-0.127D+00-0.461D+00
 Coeff:      0.153D+01
 Gap=     0.606 Goal=   None    Shift=    0.000
 Gap=     0.301 Goal=   None    Shift=    0.000
 RMSDP=3.80D-05 MaxDP=8.11D-04 DE=-1.22D-05 OVMax= 2.32D-03

 Cycle   8  Pass 0  IDiag  1:
 E= -115.296141756458     Delta-E=       -0.000002168045 Rises=F Damp=F
 DIIS: error= 2.11D-05 at cycle   8 NSaved=   8.
 NSaved= 8 IEnMin= 8 EnMin= -115.296141756458     IErMin= 8 ErrMin= 2.11D-05
 ErrMax= 2.11D-05  0.00D+00 EMaxC= 1.00D-01 BMatC= 8.24D-08 BMatP= 2.45D-06
 IDIUse=1 WtCom= 1.00D+00 WtEn= 0.00D+00
 Coeff-Com:  0.597D-03-0.975D-03-0.763D-02-0.136D-01 0.535D-01 0.156D+00
 Coeff-Com: -0.703D+00 0.151D+01
 Coeff:      0.597D-03-0.975D-03-0.763D-02-0.136D-01 0.535D-01 0.156D+00
 Coeff:     -0.703D+00 0.151D+01
 Gap=     0.606 Goal=   None    Shift=    0.000
 Gap=     0.301 Goal=   None    Shift=    0.000
 RMSDP=8.19D-06 MaxDP=1.63D-04 DE=-2.17D-06 OVMax= 4.64D-04

 Initial convergence to 1.0D-05 achieved.  Increase integral accuracy.
 Cycle   9  Pass 1  IDiag  1:
 E= -115.296142275970     Delta-E=       -0.000000519512 Rises=F Damp=F
 DIIS: error= 1.71D-05 at cycle   1 NSaved=   1.
 NSaved= 1 IEnMin= 1 EnMin= -115.296142275970     IErMin= 1 ErrMin= 1.71D-05
 ErrMax= 1.71D-05  0.00D+00 EMaxC= 1.00D-01 BMatC= 6.75D-08 BMatP= 6.75D-08
 IDIUse=1 WtCom= 1.00D+00 WtEn= 0.00D+00
 Coeff-Com:  0.100D+01
 Coeff:      0.100D+01
 Gap=     0.606 Goal=   None    Shift=    0.000
 Gap=     0.301 Goal=   None    Shift=    0.000
 RMSDP=8.19D-06 MaxDP=1.63D-04 DE=-5.20D-07 OVMax= 3.93D-05

 Cycle  10  Pass 1  IDiag  1:
 E= -115.296142289996     Delta-E=       -0.000000014027 Rises=F Damp=F
 DIIS: error= 4.49D-06 at cycle   2 NSaved=   2.
 NSaved= 2 IEnMin= 2 EnMin= -115.296142289996     IErMin= 2 ErrMin= 4.49D-06
 ErrMax= 4.49D-06  0.00D+00 EMaxC= 1.00D-01 BMatC= 2.47D-09 BMatP= 6.75D-08
 IDIUse=1 WtCom= 1.00D+00 WtEn= 0.00D+00
 Coeff-Com: -0.832D-02 0.101D+01
 Coeff:     -0.832D-02 0.101D+01
 Gap=     0.606 Goal=   None    Shift=    0.000
 Gap=     0.301 Goal=   None    Shift=    0.000
 RMSDP=6.32D-07 MaxDP=1.13D-05 DE=-1.40D-08 OVMax= 2.33D-05

 Cycle  11  Pass 1  IDiag  1:
 E= -115.296142290583     Delta-E=       -0.000000000587 Rises=F Damp=F
 DIIS: error= 2.64D-06 at cycle   3 NSaved=   3.
 NSaved= 3 IEnMin= 3 EnMin= -115.296142290583     IErMin= 3 ErrMin= 2.64D-06
 ErrMax= 2.64D-06  0.00D+00 EMaxC= 1.00D-01 BMatC= 1.73D-09 BMatP= 2.47D-09
 IDIUse=1 WtCom= 1.00D+00 WtEn= 0.00D+00
 Coeff-Com: -0.300D-01 0.458D+00 0.572D+00
 Coeff:     -0.300D-01 0.458D+00 0.572D+00
 Gap=     0.606 Goal=   None    Shift=    0.000
 Gap=     0.301 Goal=   None    Shift=    0.000
 RMSDP=2.79D-07 MaxDP=5.37D-06 DE=-5.87D-10 OVMax= 9.50D-06

 Cycle  12  Pass 1  IDiag  1:
 E= -115.296142290933     Delta-E=       -0.000000000350 Rises=F Damp=F
 DIIS: error= 7.55D-07 at cycle   4 NSaved=   4.
 NSaved= 4 IEnMin= 4 EnMin= -115.296142290933     IErMin= 4 ErrMin= 7.55D-07
 ErrMax= 7.55D-07  0.00D+00 EMaxC= 1.00D-01 BMatC= 1.33D-10 BMatP= 1.73D-09
 IDIUse=1 WtCom= 1.00D+00 WtEn= 0.00D+00
 Coeff-Com: -0.114D-01-0.266D-02 0.169D+00 0.845D+00
 Coeff:     -0.114D-01-0.266D-02 0.169D+00 0.845D+00
 Gap=     0.606 Goal=   None    Shift=    0.000
 Gap=     0.301 Goal=   None    Shift=    0.000
 RMSDP=1.22D-07 MaxDP=2.05D-06 DE=-3.50D-10 OVMax= 3.46D-06

 Cycle  13  Pass 1  IDiag  1:
 E= -115.296142290983     Delta-E=       -0.000000000050 Rises=F Damp=F
 DIIS: error= 3.11D-07 at cycle   5 NSaved=   5.
 NSaved= 5 IEnMin= 5 EnMin= -115.296142290983     IErMin= 5 ErrMin= 3.11D-07
 ErrMax= 3.11D-07  0.00D+00 EMaxC= 1.00D-01 BMatC= 1.35D-11 BMatP= 1.33D-10
 IDIUse=1 WtCom= 1.00D+00 WtEn= 0.00D+00
 Coeff-Com:  0.544D-02-0.577D-01-0.122D+00-0.165D+00 0.134D+01
 Coeff:      0.544D-02-0.577D-01-0.122D+00-0.165D+00 0.134D+01
 Gap=     0.606 Goal=   None    Shift=    0.000
 Gap=     0.301 Goal=   None    Shift=    0.000
 RMSDP=8.17D-08 MaxDP=1.27D-06 DE=-5.02D-11 OVMax= 1.88D-06

 Cycle  14  Pass 1  IDiag  1:
 E= -115.296142290994     Delta-E=       -0.000000000011 Rises=F Damp=F
 DIIS: error= 7.21D-08 at cycle   6 NSaved=   6.
 NSaved= 6 IEnMin= 6 EnMin= -115.296142290994     IErMin= 6 ErrMin= 7.21D-08
 ErrMax= 7.21D-08  0.00D+00 EMaxC= 1.00D-01 BMatC= 7.01D-13 BMatP= 1.35D-11
 IDIUse=1 WtCom= 1.00D+00 WtEn= 0.00D+00
 Coeff-Com:  0.784D-03 0.198D-03-0.660D-02-0.496D-01-0.319D-01 0.109D+01
 Coeff:      0.784D-03 0.198D-03-0.660D-02-0.496D-01-0.319D-01 0.109D+01
 Gap=     0.606 Goal=   None    Shift=    0.000
 Gap=     0.301 Goal=   None    Shift=    0.000
 RMSDP=1.68D-08 MaxDP=3.41D-07 DE=-1.08D-11 OVMax= 4.05D-07

 Cycle  15  Pass 1  IDiag  1:
 E= -115.296142290994     Delta-E=       -0.000000000000 Rises=F Damp=F
 DIIS: error= 2.42D-08 at cycle   7 NSaved=   7.
 NSaved= 7 IEnMin= 7 EnMin= -115.296142290994     IErMin= 7 ErrMin= 2.42D-08
 ErrMax= 2.42D-08  0.00D+00 EMaxC= 1.00D-01 BMatC= 1.18D-13 BMatP= 7.01D-13
 IDIUse=1 WtCom= 1.00D+00 WtEn= 0.00D+00
 Coeff-Com: -0.316D-03 0.589D-02 0.999D-02 0.329D-02-0.144D+00 0.285D+00
 Coeff-Com:  0.841D+00
 Coeff:     -0.316D-03 0.589D-02 0.999D-02 0.329D-02-0.144D+00 0.285D+00
 Coeff:      0.841D+00
 Gap=     0.606 Goal=   None    Shift=    0.000
 Gap=     0.301 Goal=   None    Shift=    0.000
 RMSDP=4.57D-09 MaxDP=9.52D-08 DE=-3.98D-13 OVMax= 1.15D-07

 SCF Done:  E(UwB97XD) =  -115.296142291     A.U. after   15 cycles
            NFock= 15  Conv=0.46D-08     -V/T= 2.0064
 <Sx>= 0.0000 <Sy>= 0.0000 <Sz>= 0.5000 <S**2>= 0.7541 S= 0.5020
 <L.S>=  0.00000000000    
 KE= 1.145661098464D+02 PE=-3.452971087630D+02 EE= 7.509010050542D+01
 Annihilation of the first spin contaminant:
 S**2 before annihilation     0.7541,   after     0.7500
 Leave Link  502 at Tue Jul  7 12:55:44 2026, MaxMem=  1073741824 cpu:               3.6 elap:               0.9
 (Enter /home/jianhua/gaussian_gpu/g16/l508.exe)
 QCSCF skips out because SCF is already converged.
 Leave Link  508 at Tue Jul  7 12:55:44 2026, MaxMem=  1073741824 cpu:               0.0 elap:               0.0
 (Enter /home/jianhua/gaussian_gpu/g16/l801.exe)
 DoSCS=F DFT=T ScalE2(SS,OS)=  1.000000  1.000000
 ExpMin= 1.22D-01 ExpMax= 1.17D+04 ExpMxC= 4.01D+02 IAcc=3 IRadAn=         5 AccDes= 0.00D+00
 HarFok:  IExCor=  205 AccDes= 0.00D+00 IRadAn=         5 IDoV=-2 UseB2=F ITyADJ=14
 ICtDFT= 12500011 ScaDFX=  1.000000  1.000000  1.000000  1.000000
 Largest valence mixing into a core orbital is  3.34D-05
 Largest core mixing into a valence orbital is  1.25D-05
 Largest valence mixing into a core orbital is  3.45D-05
 Largest core mixing into a valence orbital is  1.34D-05
 Range of M.O.s used for correlation:     3    48
 NBasis=    48 NAE=     9 NBE=     8 NFC=     2 NFV=     0
 NROrb=     46 NOA=     7 NOB=     6 NVA=    39 NVB=    40
 Leave Link  801 at Tue Jul  7 12:55:44 2026, MaxMem=  1073741824 cpu:               0.1 elap:               0.0
 (Enter /home/jianhua/gaussian_gpu/g16/l914.exe)
 UHF ground state
 Keep R1, R2, and R3 ints in memory in canonical form, NReq=9258606.
 FoFCou: FMM=F IPFlag=           0 FMFlag=           0 FMFlg1=           0
         NFxFlg=           0 DoJE=F BraDBF=F KetDBF=F FulRan=T
         wScrn=  0.000000 ICntrl=       600 IOpCl=  0 I1Cent=           0 NGrid=           0
         NMat0=    1 NMatS0=   1176 NMatT0=    0 NMatD0=    1 NMtDS0=    0 NMtDT0=    0
 Symmetry not used in FoFCou.
 Two-electron integral symmetry not used.
 MDV=  1073741824 DFT=T DoStab=F Mixed=T DoRPA=F DoScal=F NonHer=F
 Making orbital integer symmetry assigments:
    24 initial guesses have been made.
 Convergence on wavefunction:    0.000001000000000
 Davidson Disk Diagonalization:  ConvIn= 1.00D-06 SkipCon=T Conv= 1.00D-06.
 Max sub-space:  1026 roots to seek:    24 dimension of matrix:          513
 Iteration     1 Dimension    24 NMult     0 NNew     24
 CISAX will form    24 AO SS matrices at one time.
 NMat=    24 NSing=    24 JSym2X= 0.
 New state      2 was old state      3
 New state      3 was old state      2
 New state      6 was old state      7
 Excitation Energies [eV] at current iteration:
 Root      1 :     1.785738263181064
 Root      2 :     4.249264019464849
 Root      3 :     6.345345088045122
 Root      4 :     6.769396574109770
 Root      5 :    10.665893227554342
 Root      6 :    10.988487724945330
 Root      7 :    11.234535066375724
 Root      8 :    11.633951252466735
 Root      9 :    12.616070560036080
 Root     10 :    12.985216124583959
 Root     11 :    12.996770344056991
 Root     12 :    13.070832423113702
 Root     13 :    13.355109214047875
 Root     14 :    13.387176489043023
 Root     15 :    13.691732826173375
 Root     16 :    13.841160311921056
 Root     17 :    13.897100247171061
 Root     18 :    13.965072323548407
 Root     19 :    14.262796588054455
 Root     20 :    14.407864510273477
 Root     21 :    14.530941859947232
 Root     22 :    14.902760880836627
 Root     23 :    15.230941313855672
 Root     24 :    15.874625460540129
 Iteration     2 Dimension    48 NMult    24 NNew     24
 CISAX will form    24 AO SS matrices at one time.
 NMat=    24 NSing=    24 JSym2X= 0.
 Root      1 not converged, maximum delta is    0.017098041914731
 Root      2 not converged, maximum delta is    0.028400741258635
 Root      3 not converged, maximum delta is    0.058633563318692
 Root      4 not converged, maximum delta is    0.030419568574342
 Root      5 not converged, maximum delta is    0.047878084019996
 Root      6 not converged, maximum delta is    0.088297512253481
 Excitation Energies [eV] at current iteration:
 Root      1 :     1.705747105264262   Change is   -0.079991157916802
 Root      2 :     4.170395656660145   Change is   -0.078868362804704
 Root      3 :     5.319011080897685   Change is   -1.026334007147437
 Root      4 :     6.638550663548347   Change is   -0.130845910561423
 Root      5 :    10.509700496819224   Change is   -0.156192730735118
 Root      6 :    10.835102710475544   Change is   -0.153385014469785
 Root      7 :    11.102558113330200   Change is   -0.131976953045524
 Root      8 :    11.440738912031364   Change is   -0.193212340435372
 Root      9 :    12.412247894911600   Change is   -0.203822665124481
 Root     10 :    12.701801510219351   Change is   -0.283414614364607
 Root     11 :    12.826954807401052   Change is   -0.169815536655939
 Root     12 :    12.883891093535050   Change is   -0.186941329578651
 Root     13 :    12.995478843083937   Change is   -0.391697645959086
 Root     14 :    13.257977093364126   Change is   -0.097132120683750
 Root     15 :    13.476220421815134   Change is   -0.215512404358241
 Root     16 :    13.560088406861880   Change is   -0.281071905059177
 Root     17 :    13.739290372648762   Change is   -0.157809874522300
 Root     18 :    13.748051077625517   Change is   -0.217021245922890
 Root     19 :    14.111246837535393   Change is   -0.296617672738083
 Root     20 :    14.125978354966362   Change is   -0.136818233088093
 Root     21 :    14.232186101818542   Change is   -0.298755758128690
 Root     22 :    14.645433565522717   Change is   -0.257327315313909
 Root     23 :    15.042247117764305   Change is   -0.188694196091367
 Root     24 :    15.088772209519757   Change is   -0.785853251020372
 Iteration     3 Dimension    54 NMult    48 NNew      6
 CISAX will form     6 AO SS matrices at one time.
 NMat=     6 NSing=     6 JSym2X= 0.
 Root      1 not converged, maximum delta is    0.001467195160325
 Root      2 not converged, maximum delta is    0.004553546092684
 Root      3 not converged, maximum delta is    0.014872363265462
 Root      4 not converged, maximum delta is    0.003312305292778
 Root      5 not converged, maximum delta is    0.012466468175727
 Root      6 not converged, maximum delta is    0.027077610042192
 Excitation Energies [eV] at current iteration:
 Root      1 :     1.704881927003688   Change is   -0.000865178260575
 Root      2 :     4.169087796977799   Change is   -0.001307859682346
 Root      3 :     5.292771142644900   Change is   -0.026239938252784
 Root      4 :     6.636867213683961   Change is   -0.001683449864387
 Root      5 :    10.502846786453185   Change is   -0.006853710366040
 Root      6 :    10.825102497329571   Change is   -0.010000213145974
 Iteration     4 Dimension    60 NMult    54 NNew      6
 CISAX will form     6 AO SS matrices at one time.
 NMat=     6 NSing=     6 JSym2X= 0.
 Root      1 not converged, maximum delta is    0.000100554241249
 Root      2 not converged, maximum delta is    0.000224170988101
 Root      3 not converged, maximum delta is    0.001786212364224
 Root      4 not converged, maximum delta is    0.000373165053605
 Root      5 not converged, maximum delta is    0.002165998647797
 Root      6 not converged, maximum delta is    0.004049100471110
 Excitation Energies [eV] at current iteration:
 Root      1 :     1.704878886891858   Change is   -0.000003040111829
 Root      2 :     4.169079527603217   Change is   -0.000008269374582
 Root      3 :     5.292335086772831   Change is   -0.000436055872069
 Root      4 :     6.636849120053929   Change is   -0.000018093630032
 Root      5 :    10.502669861502644   Change is   -0.000176924950541
 Root      6 :    10.824728060595428   Change is   -0.000374436734142
 Iteration     5 Dimension    66 NMult    60 NNew      6
 CISAX will form     6 AO SS matrices at one time.
 NMat=     6 NSing=     6 JSym2X= 0.
 Root      1 not converged, maximum delta is    0.000009634791911
 Root      2 not converged, maximum delta is    0.000028891623143
 Root      3 not converged, maximum delta is    0.000165814780966
 Root      4 not converged, maximum delta is    0.000048586911768
 Root      5 not converged, maximum delta is    0.000457859418605
 Root      6 not converged, maximum delta is    0.000637374158098
 Excitation Energies [eV] at current iteration:
 Root      1 :     1.704878874606928   Change is   -0.000000012284930
 Root      2 :     4.169079470630816   Change is   -0.000000056972401
 Root      3 :     5.292328598270741   Change is   -0.000006488502091
 Root      4 :     6.636848905197719   Change is   -0.000000214856210
 Root      5 :    10.502659113696486   Change is   -0.000010747806158
 Root      6 :    10.824710711382924   Change is   -0.000017349212504
 Iteration     6 Dimension    72 NMult    66 NNew      6
 CISAX will form     6 AO SS matrices at one time.
 NMat=     6 NSing=     6 JSym2X= 0.
 Root      1 has converged.
 Root      2 not converged, maximum delta is    0.000001821573122
 Root      3 not converged, maximum delta is    0.000025029631089
 Root      4 not converged, maximum delta is    0.000003836519143
 Root      5 not converged, maximum delta is    0.000112815415685
 Root      6 not converged, maximum delta is    0.000065865169574
 Excitation Energies [eV] at current iteration:
 Root      1 :     1.704878874553292   Change is   -0.000000000053636
 Root      2 :     4.169079470278541   Change is   -0.000000000352275
 Root      3 :     5.292328478479956   Change is   -0.000000119790785
 Root      4 :     6.636848902745062   Change is   -0.000000002452656
 Root      5 :    10.502658490886922   Change is   -0.000000622809563
 Root      6 :    10.824710425693914   Change is   -0.000000285689011
 Iteration     7 Dimension    77 NMult    72 NNew      5
 CISAX will form     5 AO SS matrices at one time.
 NMat=     5 NSing=     5 JSym2X= 0.
 Root      1 has converged.
 Root      2 has converged.
 Root      3 not converged, maximum delta is    0.000004197369446
 Root      4 has converged.
 Root      5 not converged, maximum delta is    0.000015037921320
 Root      6 not converged, maximum delta is    0.000007665240729
 Excitation Energies [eV] at current iteration:
 Root      1 :     1.704878874553190   Change is   -0.000000000000103
 Root      2 :     4.169079470276770   Change is   -0.000000000001770
 Root      3 :     5.292328475578628   Change is   -0.000000002901327
 Root      4 :     6.636848902724156   Change is   -0.000000000020906
 Root      5 :    10.502658467549677   Change is   -0.000000023337245
 Root      6 :    10.824710421240747   Change is   -0.000000004453167
 Iteration     8 Dimension    80 NMult    77 NNew      3
 CISAX will form     3 AO SS matrices at one time.
 NMat=     3 NSing=     3 JSym2X= 0.
 Root      1 has converged.
 Root      2 has converged.
 Root      3 has converged.
 Root      4 has converged.
 Root      5 not converged, maximum delta is    0.000003085081507
 Root      6 has converged.
 Excitation Energies [eV] at current iteration:
 Root      1 :     1.704878874553178   Change is   -0.000000000000012
 Root      2 :     4.169079470276759   Change is   -0.000000000000012
 Root      3 :     5.292328475535088   Change is   -0.000000000043540
 Root      4 :     6.636848902724139   Change is   -0.000000000000018
 Root      5 :    10.502658466691180   Change is   -0.000000000858498
 Root      6 :    10.824710421173963   Change is   -0.000000000066784
 Iteration     9 Dimension    81 NMult    80 NNew      1
 CISAX will form     1 AO SS matrices at one time.
 NMat=     1 NSing=     1 JSym2X= 0.
 Root      1 has converged.
 Root      2 has converged.
 Root      3 has converged.
 Root      4 has converged.
 Root      5 has converged.
 Root      6 has converged.
 Excitation Energies [eV] at current iteration:
 Root      1 :     1.704878874553214   Change is    0.000000000000036
 Root      2 :     4.169079470276783   Change is    0.000000000000024
 Root      3 :     5.292328475534998   Change is   -0.000000000000091
 Root      4 :     6.636848902724108   Change is   -0.000000000000030
 Root      5 :    10.502658466671019   Change is   -0.000000000020163
 Root      6 :    10.824710421173963   Change is    0.000000000000000
 Convergence achieved on expansion vectors.
 ***********************************************************************
 Excited states from <AA,BB:AA,BB> singles matrix:
 ***********************************************************************
 
 ExtSpn:  IState=     1 X2= 1.000 Y2= 0.000 X2-Y2-1= 0.00D+00
          S2Grnd=  0.754 Ra=  0.001 Rb=  0.002 T= -0.000 S2Ext=  0.003 S2=  0.757
 ExtSpn:  IState=     2 X2= 1.000 Y2= 0.000 X2-Y2-1= 4.44D-16
          S2Grnd=  0.754 Ra=  0.001 Rb=  0.002 T= -0.000 S2Ext=  0.003 S2=  0.757
 ExtSpn:  IState=     3 X2= 1.000 Y2= 0.000 X2-Y2-1=-6.66D-16
          S2Grnd=  0.754 Ra=  0.023 Rb=  0.018 T= -0.038 S2Ext=  0.004 S2=  0.758
 ExtSpn:  IState=     4 X2= 1.000 Y2= 0.000 X2-Y2-1=-2.33D-15
          S2Grnd=  0.754 Ra=  0.003 Rb=  0.002 T= -0.001 S2Ext=  0.004 S2=  0.758
 ExtSpn:  IState=     5 X2= 1.000 Y2= 0.000 X2-Y2-1= 1.11D-15
          S2Grnd=  0.754 Ra=  0.389 Rb=  0.610 T=  0.970 S2Ext=  1.969 S2=  2.723
 ExtSpn:  IState=     6 X2= 1.000 Y2= 0.000 X2-Y2-1= 2.22D-15
          S2Grnd=  0.754 Ra=  0.087 Rb=  0.002 T= -0.003 S2Ext=  0.086 S2=  0.840
 1PDM for each excited state written to RWF  633
 Ground to excited state transition densities written to RWF  633
 Ground to excited state transition electric dipole moments (Au):
       state          X           Y           Z        Dip. S.      Osc.
         1        -0.0976      0.0000      0.0000      0.0095      0.0004
         2         0.0646      0.0000      0.0000      0.0042      0.0004
         3        -0.0000     -0.1478      0.9575      0.9386      0.1217
         4        -0.2442     -0.0000     -0.0000      0.0596      0.0097
         5         0.0000      0.0141     -0.0071      0.0002      0.0001
         6        -0.0183      0.0000     -0.0000      0.0003      0.0001
 Ground to excited state transition velocity dipole moments (Au):
       state          X           Y           Z        Dip. S.      Osc.
         1        -0.0105     -0.0000     -0.0000      0.0001      0.0012
         2        -0.0039     -0.0000     -0.0000      0.0000      0.0001
         3         0.0000     -0.0326      0.0045      0.0011      0.0037
         4        -0.0077      0.0000      0.0000      0.0001      0.0002
         5         0.0000     -0.0093      0.0016      0.0001      0.0002
         6         0.0316     -0.0000      0.0000      0.0010      0.0017
 Ground to excited state transition magnetic dipole moments (Au):
       state          X           Y           Z
         1        -0.0000      0.2326      0.7828
         2         0.0000      0.7925      0.0503
         3        -0.0058      0.0000      0.0000
         4         0.0000      0.4679     -0.4079
         5        -0.1256     -0.0000     -0.0000
         6         0.0000     -0.7649      0.1397
 Ground to excited state transition velocity quadrupole moments (Au):
       state          XX          YY          ZZ          XY          XZ          YZ
         1        -0.0000     -0.0000      0.0000      0.0006     -0.0333      0.0000
         2         0.0000      0.0000      0.0000     -0.0117      0.0263      0.0000
         3        -0.0678      0.0129      0.0990      0.0000      0.0000      0.0535
         4         0.0000     -0.0000      0.0000     -0.0039      0.0467     -0.0000
         5        -0.0172      0.0229     -0.0114     -0.0000     -0.0000      0.0543
         6        -0.0000      0.0000     -0.0000      0.0297     -0.1491     -0.0000
 <0|del|b> * <b|rxdel|0> + <0|del|b> * <b|delr+rdel|0>
 Rotatory Strengths (R) in cgs (10**-40 erg-esu-cm/Gauss)
       state          XX          YY          ZZ    R(velocity)    E-M Angle
         1        -0.0000     -0.0000     -0.0000     -0.0000       90.00
         2        -0.0000     -0.0000     -0.0000     -0.0000       90.00
         3         0.0000      0.0000     -0.0000     -0.0000       90.00
         4         0.0000     -0.0000      0.0000      0.0000       90.00
         5        -0.0000     -0.0000      0.0000     -0.0000       90.00
         6         0.0000      0.0000      0.0000      0.0000       90.00
 1/2[<0|r|b>*<b|rxdel|0> + (<0|rxdel|b>*<b|r|0>)*]
 Rotatory Strengths (R) in cgs (10**-40 erg-esu-cm/Gauss)
       state          XX          YY          ZZ     R(length)
         1        -0.0000     -0.0000     -0.0000     -0.0000
         2        -0.0000     -0.0000     -0.0000     -0.0000
         3        -0.0000      0.0000     -0.0000     -0.0000
         4         0.0000      0.0000     -0.0000      0.0000
         5         0.0000      0.0000     -0.0000      0.0000
         6         0.0000      0.0000      0.0000      0.0000
  1/2[<0|del|b>*<b|r|0> + (<0|r|b>*<b|del|0>)*] (Au)
       state          X           Y           Z        Dip. S.   Osc.(frdel)
         1         0.0010     -0.0000     -0.0000     -0.0010     -0.0007
         2        -0.0003     -0.0000     -0.0000      0.0003      0.0002
         3        -0.0000      0.0048      0.0043     -0.0091     -0.0061
         4         0.0019     -0.0000     -0.0000     -0.0019     -0.0013
         5         0.0000     -0.0001     -0.0000      0.0001      0.0001
         6        -0.0006     -0.0000     -0.0000      0.0006      0.0004

 Excitation energies and oscillator strengths:
 
 Excited state symmetry could not be determined.
 Excited State   1:  2.007-?Sym    1.7049 eV  727.23 nm  f=0.0004  <S**2>=0.757
      5B ->  9B       -0.10855
      6B ->  9B        0.21096
      8B ->  9B        0.96949
 This state for optimization and/or second-order correction.
 Total Energy, E(CIS/TDA) =  -115.233489145    
 Copying the excited state density for this state as the 1-particle RhoCI density.
 
 Excited state symmetry could not be determined.
 Excited State   2:  2.007-?Sym    4.1691 eV  297.39 nm  f=0.0004  <S**2>=0.757
      6B ->  9B        0.97137
      8B ->  9B       -0.21591
 
 Excited state symmetry could not be determined.
 Excited State   3:  2.008-?Sym    5.2923 eV  234.27 nm  f=0.1217  <S**2>=0.758
      7B ->  9B        0.97650
 
 Excited state symmetry could not be determined.
 Excited State   4:  2.008-?Sym    6.6368 eV  186.81 nm  f=0.0097  <S**2>=0.758
      4B ->  9B        0.17159
      5B ->  9B        0.97511
      8B ->  9B        0.10052
 
 Excited state symmetry could not be determined.
 Excited State   5:  3.449-?Sym   10.5027 eV  118.05 nm  f=0.0001  <S**2>=2.723
      9A -> 10A       -0.59291
      9A -> 12A        0.12688
      8B -> 10B        0.75240
      8B -> 12B        0.12967
 
 Excited state symmetry could not be determined.
 Excited State   6:  2.088-?Sym   10.8247 eV  114.54 nm  f=0.0001  <S**2>=0.840
      6A -> 10A        0.11985
      8A -> 10A        0.92531
      8A -> 12A       -0.11632
      4B ->  9B       -0.30472
 SavETr:  write IOETrn=   770 NScale= 10 NData=  16 NLR=1 NState=    6 LETran=     118.
 The state does not have a specific multiplicity.
 CISGrd: IGrad=1 NXY=1 DFT=T
 CISAX will form     1 AO SS matrices at one time.
 NMat=     1 NSing=     1 JSym2X= 0.
 Leave Link  914 at Tue Jul  7 12:55:51 2026, MaxMem=  1073741824 cpu:              26.2 elap:               6.6
 (Enter /home/jianhua/gaussian_gpu/g16/l1002.exe)
 Minotr:  UHF open shell wavefunction.
          Computing CIS/TDA/TD derivatives.
          Using Z-Vector for PSCF gradient.
          Skipping F1 and S1 gradient terms here.
          Frozen-core window.
          Direct CPHF calculation.
          Differentiating once with respect to electric field.
                with respect to dipole field.
          Electric field/nuclear overlap derivatives assumed to be zero.
          Requested convergence is 1.0D-10 RMS, and 1.0D-09 maximum.
          NewPWx=F KeepS1=T KeepF1=T KeepIn=T MapXYZ=F SortEE=F KeepMc=T.
 Keep R1 and R2 ints in memory in canonical form, NReq=6320202.
 FoFCou: FMM=F IPFlag=           0 FMFlag=           0 FMFlg1=           0
         NFxFlg=           0 DoJE=F BraDBF=F KetDBF=F FulRan=T
         wScrn=  0.000000 ICntrl=       600 IOpCl=  0 I1Cent=           0 NGrid=           0
         NMat0=    1 NMatS0=   1176 NMatT0=    0 NMatD0=    1 NMtDS0=    0 NMtDT0=    0
 Symmetry not used in FoFCou.
 Two-electron integral symmetry not used.
          MDV=    1073741824 using IRadAn=       5.
          Solving linear equations separately, MaxMat=       0.
          There are     1 degrees of freedom in the 1st order CPHF.  IDoFFX=0 NUNeed=     1.
 LinEq1:  Iter=  0 NonCon=     1 RMS=1.38D-02 Max=1.97D-01 NDo=     1
 AX will form     1 AO Fock derivatives at one time.
 LinEq1:  Iter=  1 NonCon=     1 RMS=6.78D-03 Max=6.88D-02 NDo=     1
 LinEq1:  Iter=  2 NonCon=     1 RMS=2.02D-03 Max=1.48D-02 NDo=     1
 LinEq1:  Iter=  3 NonCon=     1 RMS=5.58D-04 Max=7.25D-03 NDo=     1
 LinEq1:  Iter=  4 NonCon=     1 RMS=1.39D-04 Max=1.16D-03 NDo=     1
 LinEq1:  Iter=  5 NonCon=     1 RMS=5.04D-05 Max=4.01D-04 NDo=     1
 LinEq1:  Iter=  6 NonCon=     1 RMS=1.68D-05 Max=1.25D-04 NDo=     1
 LinEq1:  Iter=  7 NonCon=     1 RMS=3.07D-06 Max=1.84D-05 NDo=     1
 LinEq1:  Iter=  8 NonCon=     1 RMS=6.03D-07 Max=4.36D-06 NDo=     1
 LinEq1:  Iter=  9 NonCon=     1 RMS=1.14D-07 Max=1.01D-06 NDo=     1
 LinEq1:  Iter= 10 NonCon=     1 RMS=2.39D-08 Max=1.40D-07 NDo=     1
 LinEq1:  Iter= 11 NonCon=     1 RMS=5.07D-09 Max=3.45D-08 NDo=     1
 LinEq1:  Iter= 12 NonCon=     1 RMS=8.39D-10 Max=4.63D-09 NDo=     1
 LinEq1:  Iter= 13 NonCon=     1 RMS=1.28D-10 Max=9.08D-10 NDo=     1
 LinEq1:  Iter= 14 NonCon=     0 RMS=1.96D-11 Max=1.31D-10 NDo=     1
 Linear equations converged to 1.000D-10 1.000D-09 after    14 iterations.
 End of Minotr F.D. properties file   721 does not exist.
 End of Minotr F.D. properties file   722 does not exist.
 End of Minotr F.D. properties file   788 does not exist.
 Leave Link 1002 at Tue Jul  7 12:55:52 2026, MaxMem=  1073741824 cpu:               6.8 elap:               1.8
 (Enter /home/jianhua/gaussian_gpu/g16/l601.exe)
 Copying SCF densities to generalized density rwf, IOpCl= 1 IROHF=0.

 **********************************************************************

            Population analysis using the CI Density.

 **********************************************************************

 Alpha  occ. eigenvalues --  -19.71881 -10.64576  -1.53866  -1.10404  -0.95429
 Alpha  occ. eigenvalues --   -0.90254  -0.86271  -0.75255  -0.74391
 Alpha virt. eigenvalues --   -0.13769  -0.05791  -0.02852  -0.02406  -0.01155
 Alpha virt. eigenvalues --    0.26038   0.26801   0.29393   0.34754   0.44552
 Alpha virt. eigenvalues --    0.44962   0.47072   0.62422   0.63148   0.75301
 Alpha virt. eigenvalues --    0.76548   0.80841   0.96338   1.07970   1.17416
 Alpha virt. eigenvalues --    1.19582   1.37287   1.40362   1.43271   1.43395
 Alpha virt. eigenvalues --    1.49955   1.63325   1.73638   1.81303   1.85790
 Alpha virt. eigenvalues --    1.90418   2.16263   2.18400   2.21037   2.58418
 Alpha virt. eigenvalues --    2.67759   2.75142   2.88065   3.34467
  Beta  occ. eigenvalues --  -19.69964 -10.64512  -1.48765  -1.08544  -0.93251
  Beta  occ. eigenvalues --   -0.84488  -0.81536  -0.73291
  Beta virt. eigenvalues --   -0.43189  -0.13051  -0.05197  -0.02269  -0.01461
  Beta virt. eigenvalues --   -0.00699   0.26581   0.28448   0.29528   0.35213
  Beta virt. eigenvalues --    0.45568   0.46399   0.47267   0.64063   0.66957
  Beta virt. eigenvalues --    0.75741   0.77506   0.83590   0.96990   1.09445
  Beta virt. eigenvalues --    1.17930   1.20776   1.38490   1.41405   1.43737
  Beta virt. eigenvalues --    1.44680   1.51967   1.64062   1.74473   1.82768
  Beta virt. eigenvalues --    1.86636   1.91489   2.17722   2.19684   2.21117
  Beta virt. eigenvalues --    2.64066   2.73133   2.79684   2.90752   3.36540
     Alpha Molecular Orbital Coefficients:
                           1         2         3         4         5
                           O         O         O         O         O
     Eigenvalues --   -19.71881 -10.64576  -1.53866  -1.10404  -0.95429
   1 1   C  1S         -0.00004   0.99642  -0.06187  -0.16674   0.05734
   2        2S         -0.00013   0.02862   0.12055   0.35669  -0.11703
   3        3S          0.00578  -0.01219   0.01970   0.22169  -0.11807
   4        4PX         0.00000  -0.00000   0.00000  -0.00000   0.00000
   5        4PY         0.00001  -0.00028  -0.00188   0.01203   0.16167
   6        4PZ        -0.00057  -0.00057  -0.10767  -0.01668  -0.19096
   7        5PX        -0.00000  -0.00000  -0.00000  -0.00000   0.00000
   8        5PY         0.00023   0.00022  -0.00702  -0.00273   0.07359
   9        5PZ        -0.00254  -0.00086  -0.00746   0.00599  -0.04149
  10        6D 0       -0.00020  -0.00022   0.02870   0.00860   0.02117
  11        6D+1       -0.00000  -0.00000   0.00000   0.00000  -0.00000
  12        6D-1        0.00016   0.00006   0.00258  -0.00719  -0.02531
  13        6D+2        0.00000   0.00020   0.00106   0.00169  -0.00256
  14        6D-2       -0.00000   0.00000  -0.00000   0.00000   0.00000
  15 2   O  1S          0.99651   0.00008  -0.20861   0.05059  -0.05135
  16        2S          0.02272   0.00078   0.46243  -0.12533   0.12416
  17        3S         -0.01145  -0.00183   0.41163  -0.11277   0.19391
  18        4PX        -0.00000  -0.00000  -0.00000   0.00000   0.00000
  19        4PY        -0.00143   0.00005  -0.08724   0.13574   0.41864
  20        4PZ         0.00099  -0.00010   0.07037   0.28940   0.20401
  21        5PX         0.00000   0.00000   0.00000   0.00000   0.00000
  22        5PY         0.00087   0.00082  -0.01042   0.03365   0.18480
  23        5PZ        -0.00302  -0.00167   0.03987   0.13412   0.07961
  24        6D 0       -0.00034  -0.00086   0.00185   0.01714   0.01000
  25        6D+1       -0.00000  -0.00000   0.00000   0.00000  -0.00000
  26        6D-1        0.00021   0.00011  -0.00068  -0.00721   0.00422
  27        6D+2        0.00005   0.00022   0.00397   0.00226   0.01426
  28        6D-2        0.00000  -0.00000   0.00000  -0.00000  -0.00000
  29 3   H  1S         -0.00073  -0.00115   0.02594   0.15005  -0.02225
  30        2S         -0.00042   0.00207   0.00342   0.00789  -0.01490
  31        3PX         0.00000  -0.00000   0.00000  -0.00000   0.00000
  32        3PY         0.00014   0.00138  -0.00468  -0.01998   0.00416
  33        3PZ         0.00028   0.00064  -0.00482  -0.00654  -0.00146
  34 4   H  1S          0.00027   0.00078   0.15680  -0.19057  -0.28123
  35        2S          0.00020   0.00043  -0.00578  -0.01023  -0.02977
  36        3PX         0.00000  -0.00000   0.00000  -0.00000  -0.00000
  37        3PY        -0.00095   0.00016   0.03357  -0.02939  -0.03025
  38        3PZ        -0.00010   0.00067   0.01490  -0.00477  -0.01632
  39 5   H  1S         -0.00064  -0.00128   0.02902   0.16084  -0.15933
  40        2S         -0.00027   0.00228   0.00196   0.00482  -0.01315
  41        3PX         0.00006   0.00129  -0.00569  -0.01743   0.01518
  42        3PY        -0.00007  -0.00081   0.00312   0.01103  -0.00452
  43        3PZ         0.00028   0.00060  -0.00475  -0.00663   0.00082
  44 6   H  1S         -0.00064  -0.00128   0.02902   0.16084  -0.15933
  45        2S         -0.00027   0.00228   0.00196   0.00482  -0.01315
  46        3PX        -0.00006  -0.00129   0.00569   0.01743  -0.01518
  47        3PY        -0.00007  -0.00081   0.00312   0.01103  -0.00452
  48        3PZ         0.00028   0.00060  -0.00475  -0.00663   0.00082
                           6         7         8         9        10
                           O         O         O         O         V
     Eigenvalues --    -0.90254  -0.86271  -0.75255  -0.74391  -0.13769
   1 1   C  1S         -0.00000   0.02623   0.00000  -0.01062   0.01208
   2        2S         -0.00000  -0.04965   0.00000   0.03061  -0.01614
   3        3S          0.00000  -0.07959  -0.00000   0.00720  -0.35777
   4        4PX         0.28261   0.00000  -0.38018  -0.00000  -0.00000
   5        4PY         0.00000  -0.14165  -0.00000   0.43549   0.06124
   6        4PZ         0.00000  -0.30437  -0.00000  -0.00676  -0.20513
   7        5PX         0.09837  -0.00000  -0.15433  -0.00000  -0.00000
   8        5PY         0.00000  -0.08223  -0.00000   0.18332   0.07597
   9        5PZ        -0.00000  -0.08340  -0.00000   0.02562  -0.35731
  10        6D 0       -0.00000   0.03418   0.00000   0.00478  -0.03057
  11        6D+1       -0.02623  -0.00000  -0.02265  -0.00000  -0.00000
  12        6D-1        0.00000   0.01624  -0.00000   0.01770  -0.01075
  13        6D+2       -0.00000   0.00144   0.00000  -0.01289  -0.00645
  14        6D-2       -0.00945  -0.00000   0.01730   0.00000  -0.00000
  15 2   O  1S          0.00000   0.04186  -0.00000   0.03084   0.08213
  16        2S          0.00000  -0.09045   0.00000  -0.07009  -0.18315
  17        3S         -0.00000  -0.16847   0.00000  -0.13541  -0.72459
  18        4PX         0.55553   0.00000   0.43864   0.00000   0.00000
  19        4PY        -0.00000  -0.28869   0.00000  -0.27571   0.26860
  20        4PZ        -0.00000   0.44254  -0.00000   0.08526  -0.01727
  21        5PX         0.31754   0.00000   0.27697   0.00000   0.00000
  22        5PY        -0.00000  -0.16188   0.00000  -0.14748   0.28529
  23        5PZ        -0.00000   0.23480  -0.00000   0.07092   0.02209
  24        6D 0       -0.00000   0.00682  -0.00000  -0.00036   0.00383
  25        6D+1        0.01575   0.00000  -0.00313  -0.00000  -0.00000
  26        6D-1        0.00000  -0.02008  -0.00000   0.00588   0.01133
  27        6D+2       -0.00000  -0.00883   0.00000  -0.01067  -0.00539
  28        6D-2       -0.01473  -0.00000  -0.00917  -0.00000   0.00000
  29 3   H  1S         -0.00000  -0.18888  -0.00000   0.34688   0.01076
  30        2S         -0.00000  -0.01513   0.00000   0.07252   0.10684
  31        3PX         0.00860  -0.00000  -0.01149   0.00000  -0.00000
  32        3PY         0.00000   0.01593  -0.00000  -0.01412   0.00663
  33        3PZ         0.00000  -0.00016  -0.00000  -0.01148  -0.01211
  34 4   H  1S         -0.00000   0.03771  -0.00000   0.17051   0.28371
  35        2S         -0.00000  -0.01613  -0.00000   0.03544   0.92960
  36        3PX         0.02150  -0.00000   0.01742   0.00000   0.00000
  37        3PY        -0.00000  -0.00363  -0.00000   0.01254  -0.02092
  38        3PZ        -0.00000   0.02552  -0.00000   0.00790  -0.01059
  39 5   H  1S          0.15990  -0.06415  -0.30479  -0.18192   0.02115
  40        2S          0.02437  -0.02014  -0.07171  -0.05019   0.24835
  41        3PX        -0.00575   0.00455   0.00736   0.01258   0.00849
  42        3PY         0.00887  -0.00645  -0.01183   0.00824  -0.00627
  43        3PZ        -0.00479  -0.00480   0.00890   0.00504  -0.01407
  44 6   H  1S         -0.15990  -0.06415   0.30479  -0.18192   0.02115
  45        2S         -0.02437  -0.02014   0.07171  -0.05019   0.24835
  46        3PX        -0.00575  -0.00455   0.00736  -0.01258  -0.00849
  47        3PY        -0.00887  -0.00645   0.01183   0.00824  -0.00627
  48        3PZ         0.00479  -0.00480  -0.00890   0.00504  -0.01407
                          11        12        13        14        15
                           V         V         V         V         V
     Eigenvalues --    -0.05791  -0.02852  -0.02406  -0.01155   0.26038
   1 1   C  1S         -0.13806   0.01305  -0.00000   0.03241   0.01271
   2        2S          0.29169  -0.02940  -0.00000  -0.08395  -0.15203
   3        3S          1.86269  -0.00006   0.00000  -0.39307   0.19622
   4        4PX        -0.00000  -0.00000  -0.45269  -0.00000   0.00000
   5        4PY        -0.08564   0.14026   0.00000  -0.38534  -0.24355
   6        4PZ        -0.06523   0.40991  -0.00000   0.14558   0.24576
   7        5PX        -0.00000  -0.00000  -1.12837  -0.00000  -0.00000
   8        5PY        -0.18822   0.33266   0.00000  -1.09604   0.79064
   9        5PZ        -0.01272   1.08662  -0.00000   0.32258  -0.42251
  10        6D 0       -0.01618   0.04038  -0.00000   0.02194   0.02252
  11        6D+1        0.00000   0.00000   0.03227   0.00000   0.00000
  12        6D-1        0.00643  -0.03005   0.00000   0.03330  -0.10225
  13        6D+2       -0.01050   0.00594   0.00000  -0.05395   0.14692
  14        6D-2       -0.00000  -0.00000  -0.04083  -0.00000  -0.00000
  15 2   O  1S          0.03972  -0.03084   0.00000  -0.01661   0.01541
  16        2S         -0.08285   0.05334  -0.00000   0.03324  -0.03575
  17        3S         -0.38344   0.38559  -0.00000   0.17163  -0.23780
  18        4PX         0.00000   0.00000   0.06568   0.00000   0.00000
  19        4PY         0.07635   0.13104  -0.00000   0.12430  -0.01629
  20        4PZ        -0.17890   0.34720  -0.00000   0.15325   0.17072
  21        5PX         0.00000   0.00000   0.14427   0.00000   0.00000
  22        5PY         0.08196   0.14881  -0.00000   0.22669  -0.09195
  23        5PZ        -0.24014   0.52644  -0.00000   0.24578  -0.06856
  24        6D 0        0.01591  -0.00783   0.00000  -0.00667  -0.03418
  25        6D+1       -0.00000  -0.00000  -0.01650  -0.00000  -0.00000
  26        6D-1        0.00139   0.00965  -0.00000  -0.01421   0.02871
  27        6D+2       -0.00305  -0.00467   0.00000  -0.00447  -0.02076
  28        6D-2       -0.00000  -0.00000  -0.00733  -0.00000  -0.00000
  29 3   H  1S         -0.03824  -0.14005   0.00000   0.19302  -0.61301
  30        2S         -0.50238  -0.92984   0.00000   1.61632   0.43262
  31        3PX         0.00000  -0.00000  -0.01590  -0.00000  -0.00000
  32        3PY         0.00004  -0.02036   0.00000   0.01645  -0.02450
  33        3PZ        -0.01008   0.01124  -0.00000   0.01383  -0.00655
  34 4   H  1S          0.04792   0.20972  -0.00000   0.06573   0.38373
  35        2S          0.18609   0.77190  -0.00000   0.32211  -0.24366
  36        3PX         0.00000   0.00000   0.01900   0.00000  -0.00000
  37        3PY         0.00110  -0.02000   0.00000  -0.01084  -0.03846
  38        3PZ        -0.01510  -0.00674  -0.00000   0.02528  -0.05401
  39 5   H  1S         -0.10079  -0.02570   0.16792  -0.13613   0.41664
  40        2S         -0.98584  -0.08390   1.47338  -0.71232  -0.23174
  41        3PX        -0.01178  -0.00934   0.01430  -0.02472   0.03640
  42        3PY         0.00192   0.00610  -0.02163  -0.00824   0.04621
  43        3PZ        -0.01477   0.02333   0.00562   0.00814   0.02031
  44 6   H  1S         -0.10079  -0.02570  -0.16792  -0.13613   0.41664
  45        2S         -0.98584  -0.08390  -1.47338  -0.71232  -0.23174
  46        3PX         0.01178   0.00934   0.01430   0.02472  -0.03640
  47        3PY         0.00192   0.00610   0.02163  -0.00824   0.04621
  48        3PZ        -0.01477   0.02333  -0.00562   0.00814   0.02031
                          16        17        18        19        20
                           V         V         V         V         V
     Eigenvalues --     0.26801   0.29393   0.34754   0.44552   0.44962
   1 1   C  1S          0.00000  -0.01696   0.00624  -0.00000  -0.07205
   2        2S         -0.00000   0.42184   0.02563   0.00000   0.45101
   3        3S          0.00000  -0.60979  -0.10050  -0.00000  -0.56362
   4        4PX        -0.21627  -0.00000   0.00000  -0.85995   0.00000
   5        4PY        -0.00000  -0.12499  -0.32015  -0.00000  -0.35530
   6        4PZ         0.00000  -0.80173   0.25999   0.00000   0.17578
   7        5PX         1.01926   0.00000  -0.00000   2.08142  -0.00000
   8        5PY         0.00000   0.49898   0.99160   0.00000   0.81049
   9        5PZ        -0.00000   1.46031  -0.19837  -0.00000  -0.39473
  10        6D 0        0.00000  -0.06513   0.10532   0.00000   0.11043
  11        6D+1       -0.05788   0.00000  -0.00000   0.19501  -0.00000
  12        6D-1       -0.00000  -0.02302   0.11794   0.00000   0.04673
  13        6D+2        0.00000   0.06563   0.02665  -0.00000  -0.10609
  14        6D-2        0.17377   0.00000   0.00000  -0.17681   0.00000
  15 2   O  1S          0.00000   0.00323  -0.01257   0.00000   0.02977
  16        2S         -0.00000  -0.14136   0.11996  -0.00000  -0.18517
  17        3S         -0.00000   0.68238  -0.38900  -0.00000  -0.04041
  18        4PX        -0.22677  -0.00000  -0.00000  -0.00392   0.00000
  19        4PY        -0.00000  -0.01674  -0.33326   0.00000   0.07572
  20        4PZ         0.00000  -0.18087   0.11696  -0.00000  -0.11148
  21        5PX        -0.09394  -0.00000   0.00000  -0.15886   0.00000
  22        5PY        -0.00000  -0.15746  -0.10162  -0.00000  -0.06735
  23        5PZ        -0.00000   0.18385  -0.16241  -0.00000  -0.10908
  24        6D 0       -0.00000   0.07744  -0.00375  -0.00000  -0.01701
  25        6D+1        0.01434   0.00000   0.00000  -0.02388   0.00000
  26        6D-1        0.00000   0.00274  -0.05729   0.00000   0.01137
  27        6D+2       -0.00000   0.00323   0.07551  -0.00000  -0.02698
  28        6D-2        0.00957  -0.00000   0.00000   0.00786  -0.00000
  29 3   H  1S         -0.00000  -0.36735  -0.08127  -0.00000  -0.45030
  30        2S          0.00000  -0.00419  -0.57401   0.00000  -0.29109
  31        3PX         0.07007   0.00000   0.00000  -0.02437   0.00000
  32        3PY        -0.00000   0.00847   0.01862  -0.00000  -0.04493
  33        3PZ        -0.00000  -0.00653   0.05260  -0.00000   0.01219
  34 4   H  1S          0.00000  -0.22764  -1.04627   0.00000   0.36091
  35        2S         -0.00000   0.62965   1.11792  -0.00000  -0.57901
  36        3PX        -0.00174   0.00000  -0.00000   0.00559  -0.00000
  37        3PY        -0.00000   0.02335   0.15822  -0.00000  -0.07074
  38        3PZ        -0.00000  -0.12526   0.05415   0.00000   0.01108
  39 5   H  1S         -0.67426   0.01945  -0.01841   0.27240  -0.67195
  40        2S          0.27262  -0.07075   0.30694  -1.76581   1.06165
  41        3PX         0.00747   0.02016  -0.03928   0.13913  -0.15471
  42        3PY         0.04562   0.01422   0.03589  -0.08849   0.07417
  43        3PZ        -0.01754  -0.02002  -0.02808   0.07838  -0.01467
  44 6   H  1S          0.67426   0.01945  -0.01841  -0.27240  -0.67195
  45        2S         -0.27262  -0.07075   0.30694   1.76581   1.06165
  46        3PX         0.00747  -0.02016   0.03928   0.13913   0.15471
  47        3PY        -0.04562   0.01422   0.03589   0.08849   0.07417
  48        3PZ         0.01754  -0.02002  -0.02808  -0.07838  -0.01467
                          21        22        23        24        25
                           V         V         V         V         V
     Eigenvalues --     0.47072   0.62422   0.63148   0.75301   0.76548
   1 1   C  1S         -0.03631  -0.00000  -0.00209  -0.07311  -0.02429
   2        2S          0.25718  -0.00000  -0.12389  -1.44173  -0.59319
   3        3S         -0.35842   0.00000   0.72294   4.22961   0.34455
   4        4PX         0.00000  -0.01253  -0.00000  -0.00000  -0.00000
   5        4PY         0.69694  -0.00000  -0.11998   0.05865  -0.16791
   6        4PZ         0.14348  -0.00000  -0.20160  -0.30005   0.14087
   7        5PX        -0.00000  -0.17223   0.00000   0.00000   0.00000
   8        5PY        -1.65726   0.00000   0.11139  -0.15391   0.40078
   9        5PZ        -0.26451   0.00000   0.03556   0.30595   0.98314
  10        6D 0        0.06616   0.00000   0.07011   0.09035  -0.32967
  11        6D+1       -0.00000  -0.19560   0.00000   0.00000   0.00000
  12        6D-1       -0.15124  -0.00000  -0.23396   0.25294  -0.03337
  13        6D+2        0.16960  -0.00000  -0.27087   0.07638  -0.06059
  14        6D-2        0.00000  -0.25104   0.00000   0.00000   0.00000
  15 2   O  1S          0.00727   0.00000   0.03669   0.04704  -0.03277
  16        2S          0.01053  -0.00000  -0.07867  -0.37259   0.23589
  17        3S         -0.21521  -0.00000  -0.47339  -0.24646   0.03369
  18        4PX         0.00000  -0.71788   0.00000  -0.00000  -0.00000
  19        4PY        -0.22169  -0.00000  -0.52191  -0.09848  -0.10099
  20        4PZ        -0.09744   0.00000   0.21053   0.08274  -0.68347
  21        5PX         0.00000   0.79140  -0.00000   0.00000   0.00000
  22        5PY         0.33534   0.00000   0.87376   0.31124   0.35433
  23        5PZ        -0.01411  -0.00000  -0.30943  -0.70832   1.56335
  24        6D 0        0.00724   0.00000   0.01661  -0.03996  -0.03940
  25        6D+1        0.00000   0.00663  -0.00000  -0.00000  -0.00000
  26        6D-1       -0.00314   0.00000   0.02223  -0.04715   0.00063
  27        6D+2        0.02509  -0.00000  -0.01585  -0.01331   0.01098
  28        6D-2       -0.00000  -0.02058   0.00000   0.00000   0.00000
  29 3   H  1S         -0.63542  -0.00000   0.05854  -0.41203  -0.19188
  30        2S          2.00463  -0.00000  -0.41530  -0.74704  -0.54451
  31        3PX         0.00000  -0.16256   0.00000   0.00000   0.00000
  32        3PY        -0.21714   0.00000   0.11955   0.03452   0.09374
  33        3PZ        -0.11424  -0.00000  -0.17343   0.13331  -0.10408
  34 4   H  1S         -0.20512   0.00000   0.39894   0.12890   0.06618
  35        2S          0.16529   0.00000   0.12528  -0.33089   0.94361
  36        3PX         0.00000   0.09294  -0.00000   0.00000   0.00000
  37        3PY         0.09487   0.00000   0.19974  -0.09531   0.13876
  38        3PZ         0.05489   0.00000  -0.01743   0.27092   0.16445
  39 5   H  1S         -0.15401   0.03088   0.00749  -0.35510  -0.05767
  40        2S         -0.55393  -0.05373  -0.05281  -0.79626  -0.24681
  41        3PX         0.01098   0.01405  -0.10129   0.09671  -0.00410
  42        3PY         0.01266  -0.10961  -0.12564   0.03055  -0.00698
  43        3PZ         0.03816  -0.18609   0.11924   0.05121   0.01632
  44 6   H  1S         -0.15401  -0.03088   0.00749  -0.35510  -0.05767
  45        2S         -0.55393   0.05373  -0.05281  -0.79626  -0.24681
  46        3PX        -0.01098   0.01405   0.10129  -0.09671   0.00410
  47        3PY         0.01266   0.10961  -0.12564   0.03055  -0.00698
  48        3PZ         0.03816   0.18609   0.11924   0.05121   0.01632
                          26        27        28        29        30
                           V         V         V         V         V
     Eigenvalues --     0.80841   0.96338   1.07970   1.17416   1.19582
   1 1   C  1S          0.00000  -0.05391  -0.00000  -0.01884  -0.00000
   2        2S          0.00000  -1.01534  -0.00000  -0.40523  -0.00000
   3        3S         -0.00000   2.56139   0.00000   0.51818   0.00000
   4        4PX         0.13384  -0.00000  -0.00064  -0.00000   0.01274
   5        4PY         0.00000   0.05963  -0.00000   0.00407   0.00000
   6        4PZ         0.00000   0.11629  -0.00000   0.14892   0.00000
   7        5PX        -0.70671   0.00000   0.57091   0.00000  -0.16392
   8        5PY         0.00000   0.31978   0.00000  -0.38302  -0.00000
   9        5PZ        -0.00000  -0.20715  -0.00000   0.31876   0.00000
  10        6D 0        0.00000  -0.01404   0.00000  -0.18084  -0.00000
  11        6D+1        0.55016  -0.00000  -0.07259  -0.00000  -0.01945
  12        6D-1       -0.00000  -0.49026  -0.00000   0.00996  -0.00000
  13        6D+2       -0.00000  -0.04903  -0.00000   0.17817   0.00000
  14        6D-2        0.15459   0.00000  -0.22324  -0.00000   0.02574
  15 2   O  1S         -0.00000  -0.01111   0.00000  -0.00294   0.00000
  16        2S          0.00000  -0.01191  -0.00000   0.07616  -0.00000
  17        3S          0.00000  -0.03771   0.00000  -0.10561   0.00000
  18        4PX        -0.46071   0.00000   0.23418   0.00000  -0.00579
  19        4PY         0.00000   0.38268   0.00000  -0.23086  -0.00000
  20        4PZ         0.00000   0.07229  -0.00000   0.03088   0.00000
  21        5PX         0.81181  -0.00000  -0.82475  -0.00000   0.01518
  22        5PY        -0.00000  -1.39051  -0.00000   0.62454   0.00000
  23        5PZ         0.00000  -0.46949  -0.00000   0.56921   0.00000
  24        6D 0        0.00000  -0.00370  -0.00000  -0.01151  -0.00000
  25        6D+1       -0.10512   0.00000  -0.01340  -0.00000  -0.00723
  26        6D-1        0.00000   0.09061   0.00000   0.10521   0.00000
  27        6D+2        0.00000   0.09591   0.00000   0.00791   0.00000
  28        6D-2       -0.01472   0.00000  -0.19065  -0.00000  -0.01261
  29 3   H  1S          0.00000  -0.26710  -0.00000   0.04599   0.00000
  30        2S          0.00000  -0.37271  -0.00000  -0.01511  -0.00000
  31        3PX         0.12493   0.00000   0.10211   0.00000  -0.52496
  32        3PY        -0.00000   0.05028   0.00000  -0.19324  -0.00000
  33        3PZ        -0.00000  -0.09478  -0.00000   0.37421   0.00000
  34 4   H  1S         -0.00000  -0.76277  -0.00000   0.40691   0.00000
  35        2S         -0.00000  -0.37349  -0.00000   0.09785  -0.00000
  36        3PX         0.26536  -0.00000   0.92872   0.00000   0.04795
  37        3PY         0.00000  -0.04237  -0.00000   0.32249   0.00000
  38        3PZ        -0.00000  -0.36978   0.00000  -0.56423  -0.00000
  39 5   H  1S          0.04424  -0.33378  -0.18453  -0.24026   0.06577
  40        2S          0.25832  -0.29010  -0.22018  -0.17078   0.04574
  41        3PX        -0.04188  -0.03811   0.02886   0.04001   0.34336
  42        3PY         0.09606  -0.11747  -0.00800  -0.15015   0.52977
  43        3PZ         0.20129   0.02579  -0.10183  -0.34731  -0.03438
  44 6   H  1S         -0.04424  -0.33378   0.18453  -0.24026  -0.06577
  45        2S         -0.25832  -0.29010   0.22018  -0.17078  -0.04574
  46        3PX        -0.04188   0.03811   0.02886  -0.04001   0.34336
  47        3PY        -0.09606  -0.11747   0.00800  -0.15015  -0.52977
  48        3PZ        -0.20129   0.02579   0.10183  -0.34731   0.03438
                          31        32        33        34        35
                           V         V         V         V         V
     Eigenvalues --     1.37287   1.40362   1.43271   1.43395   1.49955
   1 1   C  1S          0.00000   0.01748  -0.00000   0.00991   0.04843
   2        2S         -0.00000  -0.00460  -0.00000  -0.03715   0.42013
   3        3S         -0.00000  -0.43949  -0.00000  -0.18569  -2.20381
   4        4PX        -0.09307   0.00000  -0.13586  -0.00000   0.00000
   5        4PY        -0.00000   0.06934  -0.00000  -0.09133   0.01813
   6        4PZ         0.00000   0.09968   0.00000   0.07894   0.23506
   7        5PX         1.19982  -0.00000   0.36768   0.00000  -0.00000
   8        5PY        -0.00000  -0.92592   0.00000   0.75962   0.50170
   9        5PZ         0.00000   0.81993  -0.00000   0.89751   0.61918
  10        6D 0       -0.00000  -0.67187   0.00000  -0.56212  -0.56917
  11        6D+1       -0.18360   0.00000   0.70317   0.00000  -0.00000
  12        6D-1       -0.00000  -0.12404  -0.00000   0.45305  -0.19941
  13        6D+2        0.00000   0.42591   0.00000  -0.53623   0.12660
  14        6D-2       -0.37586   0.00000  -0.56782  -0.00000   0.00000
  15 2   O  1S         -0.00000  -0.03084   0.00000  -0.03168  -0.02571
  16        2S         -0.00000  -0.20474  -0.00000  -0.03390  -1.30139
  17        3S          0.00000   1.17679   0.00000   0.80746   2.93774
  18        4PX         0.05400  -0.00000   0.14681   0.00000  -0.00000
  19        4PY        -0.00000  -0.16181   0.00000   0.11213  -0.11202
  20        4PZ         0.00000   0.35918  -0.00000   0.33568  -0.05817
  21        5PX        -0.39582   0.00000   0.02705   0.00000   0.00000
  22        5PY         0.00000   0.25815  -0.00000  -0.29351  -0.59995
  23        5PZ         0.00000   0.13193   0.00000   0.06609   0.73675
  24        6D 0       -0.00000  -0.03918  -0.00000  -0.02716  -0.13407
  25        6D+1        0.12451  -0.00000  -0.17516  -0.00000   0.00000
  26        6D-1       -0.00000  -0.01573   0.00000  -0.07215   0.01051
  27        6D+2        0.00000   0.03180   0.00000  -0.03936   0.16214
  28        6D-2       -0.04169   0.00000   0.01783   0.00000  -0.00000
  29 3   H  1S          0.00000   0.39957   0.00000  -0.85244   0.12608
  30        2S          0.00000   0.15878  -0.00000  -0.06257  -0.04172
  31        3PX        -0.50666   0.00000   0.02443   0.00000   0.00000
  32        3PY         0.00000   0.29890  -0.00000  -0.21522  -0.15623
  33        3PZ        -0.00000  -0.36916   0.00000  -0.36278   0.38348
  34 4   H  1S         -0.00000  -0.01324  -0.00000  -0.17158  -0.60015
  35        2S         -0.00000  -0.05442  -0.00000   0.19898  -0.04081
  36        3PX         0.05157  -0.00000  -0.25046  -0.00000   0.00000
  37        3PY        -0.00000  -0.08268  -0.00000  -0.01156  -0.35991
  38        3PZ         0.00000  -0.02110  -0.00000   0.06301   0.05301
  39 5   H  1S         -0.42227  -0.43345  -0.55886   0.15470   0.16760
[...]
  44 6   H  1S         -0.00002   0.00000   0.00002  -0.00452  -0.00833
  45        2S         -0.00009   0.00000  -0.00006  -0.00833  -0.00533
  46        3PX         0.00000   0.00000   0.00000   0.00044  -0.00003
  47        3PY         0.00000  -0.00000   0.00000   0.00000   0.00000
  48        3PZ        -0.00000  -0.00000   0.00000   0.00000   0.00000
                          41        42        43        44        45
  41        3PX         0.00158
  42        3PY         0.00000   0.00072
  43        3PZ         0.00000   0.00000   0.00034
  44 6   H  1S          0.00044   0.00000   0.00000   0.35866
  45        2S         -0.00003   0.00000   0.00000   0.04429   0.01536
  46        3PX         0.00012   0.00000   0.00000   0.00000   0.00000
  47        3PY         0.00000   0.00000   0.00000   0.00000   0.00000
  48        3PZ         0.00000   0.00000   0.00000   0.00000   0.00000
                          46        47        48
  46        3PX         0.00158
  47        3PY         0.00000   0.00072
  48        3PZ         0.00000   0.00000   0.00034
     Gross orbital populations:
                         Total     Alpha     Beta      Spin
   1 1   C  1S          1.99765   0.99880   0.99885  -0.00004
   2        2S          0.71203   0.35717   0.35486   0.00231
   3        3S          0.43570   0.20874   0.22696  -0.01823
   4        4PX         0.81842   0.40226   0.41617  -0.01391
   5        4PY         0.60512   0.40284   0.20228   0.20056
   6        4PZ         0.59308   0.29587   0.29721  -0.00134
   7        5PX         0.30746   0.14700   0.16045  -0.01345
   8        5PY         0.27132   0.14945   0.12186   0.02759
   9        5PZ         0.11055   0.05162   0.05893  -0.00730
  10        6D 0        0.03150   0.01642   0.01508   0.00134
  11        6D+1        0.02778   0.01389   0.01390  -0.00001
  12        6D-1        0.01661   0.01177   0.00484   0.00693
  13        6D+2        0.00468   0.00365   0.00103   0.00262
  14        6D-2        0.00590   0.00313   0.00277   0.00037
  15 2   O  1S          1.99839   0.99924   0.99915   0.00009
  16        2S          0.86304   0.44375   0.41928   0.02447
  17        3S          0.84864   0.43427   0.41437   0.01991
  18        4PX         1.20683   0.61530   0.59153   0.02377
  19        4PY         0.77782   0.50039   0.27743   0.22296
  20        4PZ         0.83536   0.44756   0.38780   0.05977
  21        5PX         0.69963   0.34947   0.35016  -0.00070
  22        5PY         0.38926   0.22608   0.16319   0.06289
  23        5PZ         0.41117   0.21722   0.19395   0.02328
  24        6D 0        0.00497   0.00237   0.00260  -0.00022
  25        6D+1        0.00207   0.00100   0.00107  -0.00007
  26        6D-1        0.00296   0.00114   0.00181  -0.00067
  27        6D+2        0.00143   0.00087   0.00055   0.00032
  28        6D-2        0.00066   0.00023   0.00042  -0.00019
  29 3   H  1S          0.64055   0.40963   0.23091   0.17872
  30        2S          0.04962   0.03411   0.01552   0.01859
  31        3PX         0.00742   0.00381   0.00361   0.00020
  32        3PY         0.01976   0.01073   0.00902   0.00171
  33        3PZ         0.00527   0.00343   0.00184   0.00159
  34 4   H  1S          0.59432   0.32527   0.26905   0.05622
  35        2S          0.02489   0.01134   0.01355  -0.00221
  36        3PX         0.02058   0.01009   0.01048  -0.00039
  37        3PY         0.04360   0.02176   0.02185  -0.00009
  38        3PZ         0.01769   0.00987   0.00783   0.00204
  39 5   H  1S          0.69745   0.37499   0.32245   0.05254
  40        2S          0.07159   0.03879   0.03280   0.00598
  41        3PX         0.01595   0.00906   0.00689   0.00216
  42        3PY         0.00852   0.00418   0.00434  -0.00016
  43        3PZ         0.00464   0.00220   0.00244  -0.00024
  44 6   H  1S          0.69745   0.37499   0.32245   0.05254
  45        2S          0.07159   0.03879   0.03280   0.00598
  46        3PX         0.01595   0.00906   0.00689   0.00216
  47        3PY         0.00852   0.00418   0.00434  -0.00016
  48        3PZ         0.00464   0.00220   0.00244  -0.00024
          Condensed to atoms (all electrons):
               1          2          3          4          5          6
     1  C    4.549437   0.316012   0.329719  -0.016046   0.379338   0.379338
     2  O    0.316012   7.436012  -0.009519   0.337712  -0.018997  -0.018997
     3  H    0.329719  -0.009519   0.403567   0.002386  -0.001771  -0.001771
     4  H   -0.016046   0.337712   0.002386   0.377272  -0.000116  -0.000116
     5  H    0.379338  -0.018997  -0.001771  -0.000116   0.465256  -0.025571
     6  H    0.379338  -0.018997  -0.001771  -0.000116  -0.025571   0.465256
          Atomic-Atomic Spin Densities.
               1          2          3          4          5          6
     1  C    0.112677  -0.036509   0.074182  -0.006453   0.021776   0.021776
     2  O   -0.036509   0.472553  -0.007831   0.011204  -0.001910  -0.001910
     3  H    0.074182  -0.007831   0.152606   0.001374  -0.009762  -0.009762
     4  H   -0.006453   0.011204   0.001374   0.054682  -0.002619  -0.002619
     5  H    0.021776  -0.001910  -0.009762  -0.002619   0.046466   0.006337
     6  H    0.021776  -0.001910  -0.009762  -0.002619   0.006337   0.046466
 Mulliken charges and spin densities:
               1          2
     1  C    0.062201   0.187448
     2  O   -0.042222   0.435598
     3  H    0.277389   0.200808
     4  H    0.298909   0.055570
     5  H    0.201861   0.060288
     6  H    0.201861   0.060288
 Sum of Mulliken charges =   1.00000   1.00000
 Mulliken charges and spin densities with hydrogens summed into heavy atoms:
               1          2
     1  C    0.743313   0.508832
     2  O    0.256687   0.491168
 Electronic spatial extent (au):  <R**2>=             72.6813
 Charge=              1.0000 electrons
 Dipole moment (field-independent basis, Debye):
    X=              0.0000    Y=             -1.3434    Z=              2.0151  Tot=              2.4218
 Quadrupole moment (field-independent basis, Debye-Ang):
   XX=            -10.5365   YY=             -7.1619   ZZ=             -5.8874
   XY=             -0.0000   XZ=              0.0000   YZ=              2.4680
 Traceless Quadrupole moment (field-independent basis, Debye-Ang):
   XX=             -2.6746   YY=              0.7001   ZZ=              1.9745
   XY=             -0.0000   XZ=              0.0000   YZ=              2.4680
 Octapole moment (field-independent basis, Debye-Ang**2):
  XXX=              0.0000  YYY=              0.4395  ZZZ=             -2.6264  XYY=              0.0000
  XXY=             -1.1513  XXZ=              0.5514  XZZ=              0.0000  YZZ=             -1.2978
  YYZ=             -0.8596  XYZ=             -0.0000
 Hexadecapole moment (field-independent basis, Debye-Ang**3):
 XXXX=            -13.1620 YYYY=            -10.4910 ZZZZ=            -43.0164 XXXY=             -0.0000
 XXXZ=              0.0000 YYYX=             -0.0000 YYYZ=              4.0621 ZZZX=              0.0000
 ZZZY=              3.0453 XXYY=             -4.2320 XXZZ=             -9.1615 YYZZ=             -5.4627
 XXYZ=             -1.4587 YYXZ=              0.0000 ZZXY=             -0.0000
 N-N= 4.034475612013D+01 E-N=-3.455086475958D+02  KE= 1.145222520685D+02
 Orbital energies and kinetic energies (alpha):
                                 1                 2
   1         O               -19.718813         29.123832
   2         O               -10.645761         15.968376
   3         O                -1.538660          2.758894
   4         O                -1.104040          1.743335
   5         O                -0.954294          1.843860
   6         O                -0.902543          1.954229
   7         O                -0.862713          2.050605
   8         O                -0.752546          1.740288
   9         O                -0.743909          1.424271
  10         V                -0.137692          1.215789
  11         V                -0.057909          1.197806
  12         V                -0.028522          1.568709
  13         V                -0.024057          0.882356
  14         V                -0.011548          1.063143
  15         V                 0.260380          1.367242
  16         V                 0.268010          1.294269
  17         V                 0.293935          1.893361
  18         V                 0.347536          1.939422
  19         V                 0.445523          1.905000
  20         V                 0.449617          2.049993
  21         V                 0.470720          2.078516
  22         V                 0.624221          2.706001
  23         V                 0.631479          2.366699
  24         V                 0.753014          2.020611
  25         V                 0.765475          2.716390
  26         V                 0.808407          2.211929
  27         V                 0.963377          2.224991
  28         V                 1.079701          2.126609
  29         V                 1.174160          2.229965
  30         V                 1.195820          2.021825
  31         V                 1.372870          2.284343
  32         V                 1.403617          2.761845
  33         V                 1.432713          2.621624
  34         V                 1.433954          2.812954
  35         V                 1.499549          3.109728
  36         V                 1.633248          2.805023
  37         V                 1.736384          3.220794
  38         V                 1.813031          3.671165
  39         V                 1.857904          2.868013
  40         V                 1.904178          3.283894
  41         V                 2.162635          4.179265
  42         V                 2.184000          4.094173
  43         V                 2.210367          4.195527
  44         V                 2.584184          4.428439
  45         V                 2.677590          4.535511
  46         V                 2.751422          4.798628
  47         V                 2.880649          4.979239
  48         V                 3.344670          5.540289
 Orbital energies and kinetic energies (beta):
                                 1                 2
   1         O               -19.699640         29.144418
   2         O               -10.645116         15.969717
   3         O                -1.487651          2.625049
   4         O                -1.085444          1.741423
   5         O                -0.932506          1.793089
   6         O                -0.844877          1.946111
   7         O                -0.815358          1.235033
   8         O                -0.732915          1.503579
   9         V                -0.431894          2.112359
  10         V                -0.130509          1.193869
  11         V                -0.051969          1.109002
  12         V                -0.022692          1.459197
  13         V                -0.014608          0.871256
  14         V                -0.006988          1.240638
  15         V                 0.265814          1.387309
  16         V                 0.284481          1.309663
  17         V                 0.295275          1.892034
  18         V                 0.352129          1.973027
  19         V                 0.455676          1.917344
  20         V                 0.463987          2.055393
  21         V                 0.472669          2.101915
  22         V                 0.640628          2.375281
  23         V                 0.669570          2.750802
  24         V                 0.757407          1.983118
  25         V                 0.775056          2.806992
  26         V                 0.835904          2.441171
  27         V                 0.969897          2.240840
  28         V                 1.094453          2.146676
  29         V                 1.179298          2.229043
  30         V                 1.207763          2.021503
  31         V                 1.384902          2.285825
  32         V                 1.414052          2.764169
  33         V                 1.437367          2.832978
  34         V                 1.446804          2.626460
  35         V                 1.519674          3.032220
  36         V                 1.640617          2.847274
  37         V                 1.744735          3.209117
  38         V                 1.827681          3.727226
  39         V                 1.866360          2.867024
  40         V                 1.914894          3.311355
  41         V                 2.177221          4.190660
  42         V                 2.196844          4.095545
  43         V                 2.211166          4.200521
  44         V                 2.640664          4.437809
  45         V                 2.731329          4.546119
  46         V                 2.796841          4.737844
  47         V                 2.907522          5.052382
  48         V                 3.365397          5.537390
 Total kinetic energy from orbitals= 1.145661098464D+02
                          Isotropic Fermi Contact Couplings
        Atom                 a.u.       MegaHertz       Gauss      10(-4) cm-1
     1  C(13)             -0.02119     -23.82241      -8.50043      -7.94630
     2  O(17)              0.34247    -207.60597     -74.07897     -69.24990
     3  H(1)               0.09701     433.60309     154.72037     144.63442
     4  H(1)               0.03495     156.20217      55.73682      52.10344
     5  H(1)               0.02924     130.68660      46.63223      43.59236
     6  H(1)               0.02924     130.68660      46.63223      43.59236
 --------------------------------------------------------
       Center         ----  Spin Dipole Couplings  ----
                      3XX-RR        3YY-RR        3ZZ-RR
 --------------------------------------------------------
     1   Atom       -0.260879      0.438743     -0.177864
     2   Atom       -0.724707      1.102304     -0.377597
     3   Atom       -0.046120      0.038862      0.007258
     4   Atom       -0.060314      0.066281     -0.005967
     5   Atom        0.048736     -0.026254     -0.022483
     6   Atom        0.048736     -0.026254     -0.022483
 --------------------------------------------------------
                        XY            XZ            YZ
 --------------------------------------------------------
     1   Atom       -0.000000      0.000000     -0.170886
     2   Atom        0.000000     -0.000000     -0.966552
     3   Atom        0.000000      0.000000      0.065081
     4   Atom       -0.000000     -0.000000      0.072063
     5   Atom       -0.010415      0.018566     -0.005962
     6   Atom        0.010415     -0.018566     -0.005962
 --------------------------------------------------------


 ---------------------------------------------------------------------------------
              Anisotropic Spin Dipole Couplings in Principal Axis System
 ---------------------------------------------------------------------------------

       Atom             a.u.   MegaHertz   Gauss  10(-4) cm-1        Axes

              Baa    -0.2609   -35.007   -12.492   -11.677  1.0000 -0.0000 -0.0000
     1 C(13)  Bbb    -0.2221   -29.798   -10.633    -9.939  0.0000  0.2504  0.9682
              Bcc     0.4829    64.805    23.124    21.617 -0.0000  0.9682 -0.2504
 
              Baa    -0.8549    61.861    22.074    20.635 -0.0000  0.4428  0.8966
     2 O(17)  Bbb    -0.7247    52.439    18.712    17.492  1.0000  0.0000  0.0000
              Bcc     1.5796  -114.301   -40.785   -38.127  0.0000  0.8966 -0.4428
 
              Baa    -0.0461   -24.608    -8.781    -8.208  1.0000  0.0000 -0.0000
     3 H(1)   Bbb    -0.0439   -23.429    -8.360    -7.815  0.0000 -0.6181  0.7861
              Bcc     0.0900    48.037    17.141    16.023  0.0000  0.7861  0.6181
 
              Baa    -0.0603   -32.180   -11.483   -10.734  1.0000 -0.0000  0.0000
     4 H(1)   Bbb    -0.0505   -26.919    -9.606    -8.979 -0.0000 -0.5253  0.8509
              Bcc     0.1108    59.100    21.088    19.714 -0.0000  0.8509  0.5253
 
              Baa    -0.0308   -16.418    -5.858    -5.476 -0.0578  0.7446  0.6650
     5 H(1)   Bbb    -0.0242   -12.889    -4.599    -4.299 -0.2733 -0.6525  0.7068
              Bcc     0.0549    29.307    10.457     9.776  0.9602 -0.1409  0.2411
 
              Baa    -0.0308   -16.418    -5.858    -5.476  0.0578  0.7446  0.6650
     6 H(1)   Bbb    -0.0242   -12.889    -4.599    -4.299  0.2733 -0.6525  0.7068
              Bcc     0.0549    29.307    10.457     9.776  0.9602  0.1409 -0.2411
 

 ---------------------------------------------------------------------------------

 No NMR shielding tensors so no spin-rotation constants.
 Leave Link  601 at Tue Jul  7 12:55:53 2026, MaxMem=  1073741824 cpu:               0.2 elap:               0.1
 (Enter /home/jianhua/gaussian_gpu/g16/l9999.exe)
 Electronic transition elements 
                 1             2             3             4             5 
      1  -0.115233D+03 -0.115143D+03 -0.115102D+03 -0.115052D+03 -0.114910D+03
      2  -0.975870D-01  0.646034D-01  0.000000D+00 -0.244196D+00  0.000000D+00
      3   0.000000D+00  0.000000D+00 -0.147846D+00  0.000000D+00  0.141292D-01
      4   0.000000D+00  0.000000D+00  0.957474D+00  0.000000D+00 -0.705270D-02
      5  -0.104893D-01 -0.391933D-02  0.000000D+00 -0.770219D-02  0.000000D+00
      6   0.000000D+00  0.000000D+00 -0.325783D-01  0.000000D+00 -0.932067D-02
      7   0.000000D+00  0.000000D+00  0.450758D-02  0.000000D+00  0.161883D-02
      8   0.000000D+00  0.000000D+00 -0.581501D-02  0.000000D+00 -0.125574D+00
      9   0.232616D+00  0.792546D+00  0.000000D+00  0.467936D+00  0.000000D+00
     10   0.782833D+00  0.502874D-01  0.000000D+00 -0.407908D+00  0.000000D+00
     11   0.000000D+00  0.000000D+00 -0.677511D-01  0.000000D+00 -0.171787D-01
     12   0.000000D+00  0.000000D+00  0.129343D-01  0.000000D+00  0.228603D-01
     13   0.000000D+00  0.000000D+00  0.989819D-01  0.000000D+00 -0.113847D-01
     14   0.556602D-03 -0.116596D-01  0.000000D+00 -0.391195D-02  0.000000D+00
     15  -0.333167D-01  0.262860D-01  0.000000D+00  0.466729D-01  0.000000D+00
     16   0.000000D+00  0.000000D+00  0.534538D-01  0.000000D+00  0.543096D-01
                 6 
      1  -0.114898D+03
      2  -0.182818D-01
      3   0.000000D+00
      4   0.000000D+00
      5   0.316020D-01
      6   0.000000D+00
      7   0.000000D+00
      8   0.000000D+00
      9  -0.764939D+00
     10   0.139731D+00
     11   0.000000D+00
     12   0.000000D+00
     13   0.000000D+00
     14   0.297012D-01
     15  -0.149133D+00
     16   0.000000D+00
 Unable to Open any file for archive entry.
 1\1\GINC-SLADE190455\SP\UwB97XD TDA-FC\CC-pVDZ\C1H4O1(1+,2)\GUEST\07-J
 ul-2026\0\\#P TDA=(NStates=6) WB97XD/cc-pVDZ SCF=(MaxCycle=2000,XQC) N
 oSymm Pop=Full GFInput GFPrint Density=Current 5D 7F\\TDA-TDDFT MeOH i
 on wb97xd/cc-pVDZ, 6 roots\\1,2\C,0,0.,-0.0147269,0.7156012\O,0,0.,0.0
 695525,-0.6801439\H,0,0.,1.0112743,1.1376602\H,0,0.,-0.8665191,-1.0095
 561\H,0,0.9151188,-0.5366486,1.0703452\H,0,-0.9151188,-0.5366486,1.070
 3452\\Version=ES64L-G16RevC.02\HF=-115.2961423\S2=0.754062\S2-1=0.\S2A
 =0.750012\RMSD=4.566e-09\Dipole=0.,-0.4801739,0.6750833\Quadrupole=-1.
 9884727,0.5204781,1.4679946,0.,0.,1.8348774\PG=CS [SG(C1H2O1),X(H2)]\\
 @
 The archive entry for this job was punched.


 ONE OF THE BENEFITS OF A COLLEGE EDUCATION
 IS TO SHOW THE BOY ITS LITTLE AVAIL 
                                    EMERSON IN 'CULTURE'
 Job cpu time:       0 days  0 hours  0 minutes 38.0 seconds.
 Elapsed time:       0 days  0 hours  0 minutes  9.9 seconds.
 File lengths (MBytes):  RWF=     17 Int=      0 D2E=      0 Chk=      2 Scr=      1
 Normal termination of Gaussian 16 at Tue Jul  7 12:55:53 2026.
