TDDFT Dyson orbitals
SP        UwB97XD                                                     CC-pVDZ             
Number of atoms                            I                6
Charge                                     I                0
Multiplicity                               I                1
Number of electrons                        I               18
Number of alpha electrons                  I                9
Number of beta electrons                   I                9
Number of basis functions                  I               48
Number of independent functions            I               48
Number of point charges in /Mol/           I                0
Number of translation vectors              I                0
Atomic numbers                             I   N=           6
           6           8           1           1           1           1
Nuclear charges                            R   N=           6
  6.00000000E+00  8.00000000E+00  1.00000000E+00  1.00000000E+00  1.00000000E+00
  1.00000000E+00
Current cartesian coordinates              R   N=          18
  0.00000000E+00 -2.78298077E-02  1.35229028E+00  0.00000000E+00  1.31435176E-01
 -1.28528570E+00  0.00000000E+00  1.91103146E+00  2.14986620E+00  0.00000000E+00
 -1.63748378E+00 -1.90778454E+00  1.72932390E+00 -1.01411888E+00  2.02265929E+00
 -1.72932390E+00 -1.01411888E+00  2.02265929E+00
Int Atom Types                             I   N=           6
           0           0           0           0           0           0
MM charges                                 R   N=           6
  0.00000000E+00  0.00000000E+00  0.00000000E+00  0.00000000E+00  0.00000000E+00
  0.00000000E+00
Integer atomic weights                     I   N=           6
          12          16           1           1           1           1
Real atomic weights                        R   N=           6
  1.20000000E+01  1.59949146E+01  1.00782504E+00  1.00782504E+00  1.00782504E+00
  1.00782504E+00
Atom fragment info                         I   N=           6
           0           0           0           0           0           0
Atom residue num                           I   N=           6
           0           0           0           0           0           0
Nuclear spins                              I   N=           6
           0           0           1           1           1           1
Nuclear ZEff                               R   N=           6
 -3.60000000E+00 -5.60000000E+00 -1.00000000E+00 -1.00000000E+00 -1.00000000E+00
 -1.00000000E+00
Nuclear ZNuc                               R   N=           6
  6.00000000E+00  8.00000000E+00  1.00000000E+00  1.00000000E+00  1.00000000E+00
  1.00000000E+00
Nuclear QMom                               R   N=           6
  0.00000000E+00  0.00000000E+00  0.00000000E+00  0.00000000E+00  0.00000000E+00
  0.00000000E+00
Nuclear GFac                               R   N=           6
  0.00000000E+00  0.00000000E+00  2.79284600E+00  2.79284600E+00  2.79284600E+00
  2.79284600E+00
MicOpt                                     I   N=           6
          -1          -1          -1          -1          -1          -1
Number of residues                         I                0
Number of secondary structures             I                0
Number of contracted shells                I               24
Number of primitive shells                 I               60
Pure/Cartesian d shells                    I                0
Pure/Cartesian f shells                    I                0
Highest angular momentum                   I                2
Largest degree of contraction              I                7
Shell types                                I   N=          24
           0           0           0           1           1          -2
           0           0           0           1           1          -2
           0           0           1           0           0           1
           0           0           1           0           0           1
Number of primitives per shell             I   N=          24
           7           7           1           3           1           1
           7           7           1           3           1           1
           3           1           1           3           1           1
           3           1           1           3           1           1
Shell to atom map                          I   N=          24
           1           1           1           1           1           1
           2           2           2           2           2           2
           3           3           3           4           4           4
           5           5           5           6           6           6
Primitive exponents                        R   N=          60
  6.66500000E+03  1.00000000E+03  2.28000000E+02  6.47100000E+01  2.10600000E+01
  7.49500000E+00  2.79700000E+00  6.66500000E+03  2.28000000E+02  6.47100000E+01
  2.10600000E+01  7.49500000E+00  2.79700000E+00  5.21500000E-01  1.59600000E-01
  9.43900000E+00  2.00200000E+00  5.45600000E-01  1.51700000E-01  5.50000000E-01
  1.17200000E+04  1.75900000E+03  4.00800000E+02  1.13700000E+02  3.70300000E+01
  1.32700000E+01  5.02500000E+00  1.17200000E+04  4.00800000E+02  1.13700000E+02
  3.70300000E+01  1.32700000E+01  5.02500000E+00  1.01300000E+00  3.02300000E-01
  1.77000000E+01  3.85400000E+00  1.04600000E+00  2.75300000E-01  1.18500000E+00
  1.30100000E+01  1.96200000E+00  4.44600000E-01  1.22000000E-01  7.27000000E-01
  1.30100000E+01  1.96200000E+00  4.44600000E-01  1.22000000E-01  7.27000000E-01
  1.30100000E+01  1.96200000E+00  4.44600000E-01  1.22000000E-01  7.27000000E-01
  1.30100000E+01  1.96200000E+00  4.44600000E-01  1.22000000E-01  7.27000000E-01
Contraction coefficients                   R   N=          60
  6.93516317E-04  5.34150243E-03  2.71366714E-02  1.01992385E-01  2.75508636E-01
  4.51086433E-01  2.87565745E-01  7.73354740E-06  2.78072137E-04 -2.57875654E-03
 -8.95087684E-03 -1.06058855E-01 -1.31517686E-01  1.09948660E+00  1.00000000E+00
  5.69792516E-02  3.13207212E-01  7.60376742E-01  1.00000000E+00  1.00000000E+00
  7.11864434E-04  5.48520199E-03  2.79099296E-02  1.05133208E-01  2.84002490E-01
  4.51673946E-01  2.73208126E-01  7.69030046E-06  3.13484579E-04 -2.96614853E-03
 -1.08753543E-02 -1.20753817E-01 -1.06275264E-01  1.09597548E+00  1.00000000E+00
  6.26791663E-02  3.33536566E-01  7.41239642E-01  1.00000000E+00  1.00000000E+00
  3.34987264E-02  2.34800801E-01  8.13682958E-01  1.00000000E+00  1.00000000E+00
  3.34987264E-02  2.34800801E-01  8.13682958E-01  1.00000000E+00  1.00000000E+00
  3.34987264E-02  2.34800801E-01  8.13682958E-01  1.00000000E+00  1.00000000E+00
  3.34987264E-02  2.34800801E-01  8.13682958E-01  1.00000000E+00  1.00000000E+00
Coordinates of each shell                  R   N=          72
  0.00000000E+00 -2.78298077E-02  1.35229028E+00  0.00000000E+00 -2.78298077E-02
  1.35229028E+00  0.00000000E+00 -2.78298077E-02  1.35229028E+00  0.00000000E+00
 -2.78298077E-02  1.35229028E+00  0.00000000E+00 -2.78298077E-02  1.35229028E+00
  0.00000000E+00 -2.78298077E-02  1.35229028E+00  0.00000000E+00  1.31435176E-01
 -1.28528570E+00  0.00000000E+00  1.31435176E-01 -1.28528570E+00  0.00000000E+00
  1.31435176E-01 -1.28528570E+00  0.00000000E+00  1.31435176E-01 -1.28528570E+00
  0.00000000E+00  1.31435176E-01 -1.28528570E+00  0.00000000E+00  1.31435176E-01
 -1.28528570E+00  0.00000000E+00  1.91103146E+00  2.14986620E+00  0.00000000E+00
  1.91103146E+00  2.14986620E+00  0.00000000E+00  1.91103146E+00  2.14986620E+00
  0.00000000E+00 -1.63748378E+00 -1.90778454E+00  0.00000000E+00 -1.63748378E+00
 -1.90778454E+00  0.00000000E+00 -1.63748378E+00 -1.90778454E+00  1.72932390E+00
 -1.01411888E+00  2.02265929E+00  1.72932390E+00 -1.01411888E+00  2.02265929E+00
  1.72932390E+00 -1.01411888E+00  2.02265929E+00 -1.72932390E+00 -1.01411888E+00
  2.02265929E+00 -1.72932390E+00 -1.01411888E+00  2.02265929E+00 -1.72932390E+00
 -1.01411888E+00  2.02265929E+00
Num ILSW                                   I              100
ILSW                                       I   N=         100
           1           0           0           0           2           0
           0           0           0           0        4639          -1
           5           0           0           0           0           0
           0           0           0           0           0           0
           1           1           0           0           0           0
           0           0      100000           0          -1           0
           0           0           0           0           0           0
           0           0           0           1           0           0
           0 -2000000000           1           0           0           0
           0           0         121          52           0           0
           0           0          58           0           0           0
           0           0           0           6           0           1
           0           0           0           0           0           0
           0           0           0           0           0           0
           0           0           0           0           0           0
           0           0           0           0           0           0
           0           0           0           0
Num RLSW                                   I               52
RLSW                                       R   N=          52
  1.00000000E+00  1.00000000E+00  1.00000000E+00  1.00000000E+00  1.00000000E+00
  0.00000000E+00  2.00000000E-01  2.22036000E-01  0.00000000E+00  7.77964000E-01
  0.00000000E+00  2.00000000E-01  0.00000000E+00  0.00000000E+00  1.00000000E+00
  0.00000000E+00  0.00000000E+00  1.00000000E+00  0.00000000E+00  0.00000000E+00
  0.00000000E+00  0.00000000E+00  1.00000000E+00  0.00000000E+00  0.00000000E+00
  0.00000000E+00  0.00000000E+00  1.00000000E+00  0.00000000E+00  0.00000000E+00
  0.00000000E+00  0.00000000E+00  1.00000000E+00  0.00000000E+00  0.00000000E+00
  0.00000000E+00  0.00000000E+00  0.00000000E+00  1.00000000E+00  1.00000000E+00
  0.00000000E+00  1.00000000E+00  0.00000000E+00  0.00000000E+00  0.00000000E+00
  0.00000000E+00  0.00000000E+00  0.00000000E+00  0.00000000E+00  0.00000000E+00
  0.00000000E+00  0.00000000E+00
MxBond                                     I                4
NBond                                      I   N=           6
           4           2           1           1           1           1
IBond                                      I   N=          24
           2           3           5           6           1           4
           0           0           1           0           0           0
           2           0           0           0           1           0
           0           0           1           0           0           0
RBond                                      R   N=          24
  1.00000000E+00  1.00000000E+00  1.00000000E+00  1.00000000E+00  1.00000000E+00
  1.00000000E+00  0.00000000E+00  0.00000000E+00  1.00000000E+00  0.00000000E+00
  0.00000000E+00  0.00000000E+00  1.00000000E+00  0.00000000E+00  0.00000000E+00
  0.00000000E+00  1.00000000E+00  0.00000000E+00  0.00000000E+00  0.00000000E+00
  1.00000000E+00  0.00000000E+00  0.00000000E+00  0.00000000E+00
Virial Ratio                               R      2.006612303554848E+00
SCF Energy                                 R     -1.156854881667402E+02
Total Energy                               R     -1.156854881667402E+02
S**2                                       R      3.552713678800501E-14
S**2 after annihilation                    R      4.192202140984666E-13
RMS Density                                R      3.300602369682765E-09
Job Status                                 I                1
Nuclear derivative order                   I                0
External E-field                           R   N=          35
  0.00000000E+00  0.00000000E+00  0.00000000E+00  0.00000000E+00  0.00000000E+00
  0.00000000E+00  0.00000000E+00  0.00000000E+00  0.00000000E+00  0.00000000E+00
  0.00000000E+00  0.00000000E+00  0.00000000E+00  0.00000000E+00  0.00000000E+00
  0.00000000E+00  0.00000000E+00  0.00000000E+00  0.00000000E+00  0.00000000E+00
  0.00000000E+00  0.00000000E+00  0.00000000E+00  0.00000000E+00  0.00000000E+00
  0.00000000E+00  0.00000000E+00  0.00000000E+00  0.00000000E+00  0.00000000E+00
  0.00000000E+00  0.00000000E+00  0.00000000E+00  0.00000000E+00  0.00000000E+00
IOpCl                                      I                1
IROHF                                      I                0
Alpha Orbital Energies                     R   N=          48
  3.89345876E-01  4.51999795E-01  5.42557475E-01  5.83834314E-01  6.33243777E-01
  7.75312982E-01  7.87146264E-01 -4.08053351E-01 -3.45252963E-01  1.38146086E-01
  1.80112045E-01  2.19776182E-01  2.20893678E-01  2.83896908E-01  5.37079423E-01
  5.54320723E-01  5.87190900E-01  6.51359178E-01  7.18653742E-01  7.35745049E-01
  7.40280266E-01  9.58559585E-01  9.81734600E-01  1.03649268E+00  1.09468934E+00
  1.15322951E+00  1.28142996E+00  1.42282128E+00  1.48590957E+00  1.48651916E+00
  1.66764408E+00  1.70449334E+00  1.73497458E+00  1.75493423E+00  1.84060559E+00
  1.95530954E+00  2.05574761E+00  2.14673308E+00  2.15614752E+00  2.22344211E+00
  2.47398622E+00  2.48481598E+00  2.50053954E+00  3.01452941E+00  3.10240101E+00
  3.16498054E+00  3.28008615E+00  3.73597812E+00
Beta Orbital Energies                      R   N=          48
  3.89345876E-01  4.51999795E-01  5.42557475E-01  5.83834314E-01  6.33243777E-01
  7.75312982E-01  7.87146264E-01 -4.08053351E-01 -3.45252963E-01  1.38146086E-01
  1.80112045E-01  2.19776182E-01  2.20893678E-01  2.83896908E-01  5.37079423E-01
  5.54320723E-01  5.87190900E-01  6.51359178E-01  7.18653742E-01  7.35745049E-01
  7.40280266E-01  9.58559585E-01  9.81734600E-01  1.03649268E+00  1.09468934E+00
  1.15322951E+00  1.28142996E+00  1.42282128E+00  1.48590957E+00  1.48651916E+00
  1.66764408E+00  1.70449334E+00  1.73497458E+00  1.75493423E+00  1.84060559E+00
  1.95530954E+00  2.05574761E+00  2.14673308E+00  2.15614752E+00  2.22344211E+00
  2.47398622E+00  2.48481598E+00  2.50053954E+00  3.01452941E+00  3.10240101E+00
  3.16498054E+00  3.28008615E+00  3.73597812E+00
Ref - EOM-IP 1/A (alpha)                   R    3.893458760000073E-01
Dyson Orbital (left)                       R   N=          48
  1.37547727E-15  1.18857635E-14 -3.67202363E-14  2.05672526E-01 -3.39580945E-16
  1.21226856E-15  4.22004524E-02  6.79117331E-15 -4.06898023E-15  8.04846610E-16
  3.82390188E-02 -1.68092367E-16  3.13953867E-17 -1.11840684E-02  8.83658730E-16
 -3.58089061E-16  2.01346979E-15 -5.51763052E-01  3.27819929E-16 -3.85300697E-16
 -4.27937716E-01  9.75411068E-17  4.02333642E-15  2.56979476E-16 -4.75266190E-03
 -5.55293182E-17  8.84046432E-17  1.21960538E-02  4.80678591E-15  2.32380325E-15
  9.09545667E-03 -8.80486824E-16  1.94051559E-16 -4.20283025E-16  1.94419349E-15
 -2.84609877E-02  2.46526825E-16 -1.34157827E-16  2.17385556E-01  1.37101327E-01
 -2.42703490E-03  5.83451182E-03 -1.63959748E-03 -2.17385556E-01 -1.37101327E-01
 -2.42703490E-03 -5.83451182E-03  1.63959748E-03
Dyson Orbital (right)                      R   N=          48
  1.37547727E-15  1.18857635E-14 -3.67202363E-14  2.05672526E-01 -3.39580945E-16
  1.21226856E-15  4.22004524E-02  6.79117331E-15 -4.06898023E-15  8.04846610E-16
  3.82390188E-02 -1.68092367E-16  3.13953867E-17 -1.11840684E-02  8.83658730E-16
 -3.58089061E-16  2.01346979E-15 -5.51763052E-01  3.27819929E-16 -3.85300697E-16
 -4.27937716E-01  9.75411068E-17  4.02333642E-15  2.56979476E-16 -4.75266190E-03
 -5.55293182E-17  8.84046432E-17  1.21960538E-02  4.80678591E-15  2.32380325E-15
  9.09545667E-03 -8.80486824E-16  1.94051559E-16 -4.20283025E-16  1.94419349E-15
 -2.84609877E-02  2.46526825E-16 -1.34157827E-16  2.17385556E-01  1.37101327E-01
 -2.42703490E-03  5.83451182E-03 -1.63959748E-03 -2.17385556E-01 -1.37101327E-01
 -2.42703490E-03 -5.83451182E-03  1.63959748E-03
Ref - EOM-IP 2/A (alpha)                   R    4.519997953772815E-01
Dyson Orbital (left)                       R   N=          48
 -8.55506027E-03  2.83260372E-02 -1.40127286E-02 -3.80901256E-15  3.20251484E-01
 -8.22346980E-02  4.19160409E-15  9.97278096E-02  3.35973135E-03  6.11504280E-03
  9.46679803E-16  2.89101631E-02 -1.28747818E-02 -2.20120073E-15  5.01250111E-02
 -1.04060041E-01 -2.19318430E-01 -3.18698699E-15 -3.47519247E-01  1.61015376E-01
 -3.21344613E-15 -2.24075696E-01  1.42419488E-01 -6.73430037E-04 -3.33625180E-16
 -1.03278745E-03 -1.08062985E-02 -3.21953202E-17  2.85533352E-01  1.38469599E-01
 -1.33244324E-16 -6.14335221E-03 -8.77268713E-03  2.06112307E-01  6.27103470E-02
 -4.08988367E-17  6.51875939E-03  1.34019199E-02 -1.63621797E-01 -9.88988121E-02
  1.02057458E-02  7.16016920E-03 -8.89468390E-05 -1.63621797E-01 -9.88988121E-02
 -1.02057458E-02  7.16016920E-03 -8.89468390E-05
Dyson Orbital (right)                      R   N=          48
 -8.55506027E-03  2.83260372E-02 -1.40127286E-02 -3.80901256E-15  3.20251484E-01
 -8.22346980E-02  4.19160409E-15  9.97278096E-02  3.35973135E-03  6.11504280E-03
  9.46679803E-16  2.89101631E-02 -1.28747818E-02 -2.20120073E-15  5.01250111E-02
 -1.04060041E-01 -2.19318430E-01 -3.18698699E-15 -3.47519247E-01  1.61015376E-01
 -3.21344613E-15 -2.24075696E-01  1.42419488E-01 -6.73430037E-04 -3.33625180E-16
 -1.03278745E-03 -1.08062985E-02 -3.21953202E-17  2.85533352E-01  1.38469599E-01
 -1.33244324E-16 -6.14335221E-03 -8.77268713E-03  2.06112307E-01  6.27103470E-02
 -4.08988367E-17  6.51875939E-03  1.34019199E-02 -1.63621797E-01 -9.88988121E-02
  1.02057458E-02  7.16016920E-03 -8.89468390E-05 -1.63621797E-01 -9.88988121E-02
 -1.02057458E-02  7.16016920E-03 -8.89468390E-05
Ref - EOM-IP 3/A (alpha)                   R    5.425574750825305E-01
Dyson Orbital (left)                       R   N=          48
  1.72485105E-02 -2.79031610E-02 -2.28559067E-02 -1.54125767E-15 -2.39219358E-01
 -2.95714405E-01  2.48624889E-15 -1.25846393E-01 -1.05171967E-01  2.51330756E-02
 -2.97275057E-17  5.89208331E-03  6.03418481E-03  2.03735201E-16  3.49843679E-02
 -6.74556600E-02 -1.51370102E-01 -5.55269850E-16 -1.75135994E-01  3.48127645E-01
 -7.19519148E-16 -1.21330398E-01  2.06791550E-01  5.99307301E-03 -3.73500288E-17
 -1.77972955E-02 -2.92840299E-03  8.72812868E-17 -2.75734789E-01 -8.31673135E-02
 -4.20218216E-16  1.60612731E-02  4.67733255E-04 -1.22104709E-02 -3.87685617E-02
 -1.27610008E-16 -8.08060368E-03  2.02649895E-02 -6.92852557E-03 -9.60970174E-03
  9.06413601E-04 -7.04420752E-03 -6.67284259E-03 -6.92852557E-03 -9.60970174E-03
 -9.06413601E-04 -7.04420752E-03 -6.67284259E-03
Dyson Orbital (right)                      R   N=          48
  1.72485105E-02 -2.79031610E-02 -2.28559067E-02 -1.54125767E-15 -2.39219358E-01
 -2.95714405E-01  2.48624889E-15 -1.25846393E-01 -1.05171967E-01  2.51330756E-02
 -2.97275057E-17  5.89208331E-03  6.03418481E-03  2.03735201E-16  3.49843679E-02
 -6.74556600E-02 -1.51370102E-01 -5.55269850E-16 -1.75135994E-01  3.48127645E-01
 -7.19519148E-16 -1.21330398E-01  2.06791550E-01  5.99307301E-03 -3.73500288E-17
 -1.77972955E-02 -2.92840299E-03  8.72812868E-17 -2.75734789E-01 -8.31673135E-02
 -4.20218216E-16  1.60612731E-02  4.67733255E-04 -1.22104709E-02 -3.87685617E-02
 -1.27610008E-16 -8.08060368E-03  2.02649895E-02 -6.92852557E-03 -9.60970174E-03
  9.06413601E-04 -7.04420752E-03 -6.67284259E-03 -6.92852557E-03 -9.60970174E-03
 -9.06413601E-04 -7.04420752E-03 -6.67284259E-03
Ref - EOM-IP 4/A (alpha)                   R    5.838343137502262E-01
Dyson Orbital (left)                       R   N=          48
  1.47191718E-15  6.94432172E-16 -3.62524177E-15  3.80372008E-01  3.01729596E-15
 -1.66181711E-15  1.52761389E-01  3.12067074E-15 -3.54886775E-15  3.34706764E-16
 -1.08826290E-02 -1.73491497E-16  1.49998433E-16 -1.21689657E-02  2.42530302E-15
 -2.38863162E-15 -5.06185853E-15  2.87645341E-01 -2.44905492E-15  2.39920108E-15
  1.90851352E-01 -2.80088757E-15  4.21888606E-16 -1.52848878E-17  1.32353249E-02
 -1.88072489E-17 -1.44963086E-16 -7.92883607E-03  3.46911737E-15 -8.57316185E-16
  1.26130075E-02 -3.88231821E-16 -6.48965685E-17 -3.92807123E-17 -1.27393705E-15
  1.45597018E-02 -3.28671752E-16 -1.13853524E-16  2.38240028E-01  8.75203558E-02
 -5.60652091E-03  9.52059827E-03 -5.77798870E-03 -2.38240028E-01 -8.75203558E-02
 -5.60652091E-03 -9.52059827E-03  5.77798870E-03
Dyson Orbital (right)                      R   N=          48
  1.47191718E-15  6.94432172E-16 -3.62524177E-15  3.80372008E-01  3.01729596E-15
 -1.66181711E-15  1.52761389E-01  3.12067074E-15 -3.54886775E-15  3.34706764E-16
 -1.08826290E-02 -1.73491497E-16  1.49998433E-16 -1.21689657E-02  2.42530302E-15
 -2.38863162E-15 -5.06185853E-15  2.87645341E-01 -2.44905492E-15  2.39920108E-15
  1.90851352E-01 -2.80088757E-15  4.21888606E-16 -1.52848878E-17  1.32353249E-02
 -1.88072489E-17 -1.44963086E-16 -7.92883607E-03  3.46911737E-15 -8.57316185E-16
  1.26130075E-02 -3.88231821E-16 -6.48965685E-17 -3.92807123E-17 -1.27393705E-15
  1.45597018E-02 -3.28671752E-16 -1.13853524E-16  2.38240028E-01  8.75203558E-02
 -5.60652091E-03  9.52059827E-03 -5.77798870E-03 -2.38240028E-01 -8.75203558E-02
 -5.60652091E-03 -9.52059827E-03  5.77798870E-03
Ref - EOM-IP 5/A (alpha)                   R    6.332437774153944E-01
Dyson Orbital (left)                       R   N=          48
  2.49654295E-02 -4.79416274E-02 -3.39308206E-02 -3.16580724E-15  1.96466105E-01
 -2.08326851E-01  1.32007642E-14  9.41073456E-02 -7.99527508E-02  2.22184047E-02
  8.02972895E-16 -2.20380563E-02 -3.79325422E-03 -1.85021350E-15 -3.94944930E-02
  8.93831738E-02  1.53329926E-01 -1.35577178E-15  3.49731479E-01  2.21280031E-01
 -3.05928356E-15  1.67702567E-01  8.38898912E-02  1.21746535E-02 -2.11357719E-16
  2.92891945E-03  1.02478179E-02  2.72682964E-16  2.93887422E-02 -1.60179869E-03
 -5.58143178E-16  3.77896715E-04 -4.55608630E-03 -2.93211397E-01 -8.11823508E-02
  7.78895162E-17 -2.42965285E-02 -1.08864428E-02 -1.41468554E-01 -3.38062242E-02
  1.10795079E-02 -6.85670344E-04 -8.53123362E-04 -1.41468554E-01 -3.38062242E-02
 -1.10795079E-02 -6.85670344E-04 -8.53123362E-04
Dyson Orbital (right)                      R   N=          48
  2.49654295E-02 -4.79416274E-02 -3.39308206E-02 -3.16580724E-15  1.96466105E-01
 -2.08326851E-01  1.32007642E-14  9.41073456E-02 -7.99527508E-02  2.22184047E-02
  8.02972895E-16 -2.20380563E-02 -3.79325422E-03 -1.85021350E-15 -3.94944930E-02
  8.93831738E-02  1.53329926E-01 -1.35577178E-15  3.49731479E-01  2.21280031E-01
 -3.05928356E-15  1.67702567E-01  8.38898912E-02  1.21746535E-02 -2.11357719E-16
  2.92891945E-03  1.02478179E-02  2.72682964E-16  2.93887422E-02 -1.60179869E-03
 -5.58143178E-16  3.77896715E-04 -4.55608630E-03 -2.93211397E-01 -8.11823508E-02
  7.78895162E-17 -2.42965285E-02 -1.08864428E-02 -1.41468554E-01 -3.38062242E-02
  1.10795079E-02 -6.85670344E-04 -8.53123362E-04 -1.41468554E-01 -3.38062242E-02
 -1.10795079E-02 -6.85670344E-04 -8.53123362E-04
Ref - EOM-IP 6/A (alpha)                   R    7.753129820142590E-01
Dyson Orbital (left)                       R   N=          48
  1.42501371E-16 -4.72799440E-16  3.10374187E-16  3.06819567E-04 -8.54679604E-15
  8.86563591E-16  6.29540793E-05 -2.97620793E-15 -3.81457729E-16 -6.38219955E-17
  5.70444649E-05 -5.50051467E-16  3.16553678E-16 -1.66842460E-05 -8.04933755E-16
  1.67494834E-15  3.63245329E-15 -8.23112858E-04  5.92833929E-15 -2.28212264E-15
 -6.38391851E-04  3.90131885E-15 -2.25822811E-15  1.97682643E-17 -7.08995846E-06
 -7.12273677E-17  1.98251426E-16  1.81939125E-05 -7.49897056E-15 -3.38277805E-15
  1.35684825E-05  1.99086284E-16  2.01264558E-16 -3.91161458E-15 -1.36393130E-15
 -4.24577268E-05 -1.31502617E-16 -1.70598573E-16  3.24292911E-04  2.04525955E-04
 -3.62061872E-06  8.70384792E-06 -2.44592994E-06 -3.24292911E-04 -2.04525955E-04
 -3.62061872E-06 -8.70384793E-06  2.44592994E-06
Dyson Orbital (right)                      R   N=          48
  1.42501371E-16 -4.72799440E-16  3.10374187E-16  3.06819567E-04 -8.54679604E-15
  8.86563591E-16  6.29540793E-05 -2.97620793E-15 -3.81457729E-16 -6.38219955E-17
  5.70444649E-05 -5.50051467E-16  3.16553678E-16 -1.66842460E-05 -8.04933755E-16
  1.67494834E-15  3.63245329E-15 -8.23112858E-04  5.92833929E-15 -2.28212264E-15
 -6.38391851E-04  3.90131885E-15 -2.25822811E-15  1.97682643E-17 -7.08995846E-06
 -7.12273677E-17  1.98251426E-16  1.81939125E-05 -7.49897056E-15 -3.38277805E-15
  1.35684825E-05  1.99086284E-16  2.01264558E-16 -3.91161458E-15 -1.36393130E-15
 -4.24577268E-05 -1.31502617E-16 -1.70598573E-16  3.24292911E-04  2.04525955E-04
 -3.62061872E-06  8.70384792E-06 -2.44592994E-06 -3.24292911E-04 -2.04525955E-04
 -3.62061872E-06 -8.70384793E-06  2.44592994E-06
Ref - EOM-IP 7/A (alpha)                   R    7.871462637548199E-01
Dyson Orbital (left)                       R   N=          48
  4.86924093E-02 -1.02952052E-01 -6.37154211E-02 -1.07635228E-14 -6.45370969E-03
  7.15322928E-03 -1.33950935E-15  4.12451210E-04 -1.39223471E-04 -2.15208615E-03
 -2.24439803E-15  2.36783647E-03  4.49410911E-04  6.26082026E-16 -1.58242064E-02
  3.63976634E-02  3.49482252E-02  3.22502443E-14 -3.99692489E-02 -7.89190152E-02
  2.48285745E-14 -1.02816613E-02 -4.06727645E-02 -4.35879490E-03  2.86954464E-16
  1.89384411E-03 -1.53995492E-03 -7.36991505E-16 -4.67461083E-02 -5.92746540E-03
 -5.61385654E-16  5.71661087E-03  1.97602087E-03  6.42828973E-02  1.38488685E-02
  1.67998378E-15  8.06269757E-03  9.60318807E-04 -4.39866665E-02 -5.55709173E-03
  4.52143012E-03 -2.91000822E-03  1.72798298E-03 -4.39866665E-02 -5.55709173E-03
 -4.52143012E-03 -2.91000822E-03  1.72798298E-03
Dyson Orbital (right)                      R   N=          48
  4.86924093E-02 -1.02952052E-01 -6.37154211E-02 -1.07635228E-14 -6.45370969E-03
  7.15322928E-03 -1.33950935E-15  4.12451210E-04 -1.39223471E-04 -2.15208615E-03
 -2.24439803E-15  2.36783647E-03  4.49410911E-04  6.26082026E-16 -1.58242064E-02
  3.63976634E-02  3.49482252E-02  3.22502443E-14 -3.99692489E-02 -7.89190152E-02
  2.48285745E-14 -1.02816613E-02 -4.06727645E-02 -4.35879490E-03  2.86954464E-16
  1.89384411E-03 -1.53995492E-03 -7.36991505E-16 -4.67461083E-02 -5.92746540E-03
 -5.61385654E-16  5.71661087E-03  1.97602087E-03  6.42828973E-02  1.38488685E-02
  1.67998378E-15  8.06269757E-03  9.60318807E-04 -4.39866665E-02 -5.55709173E-03
  4.52143012E-03 -2.91000822E-03  1.72798298E-03 -4.39866665E-02 -5.55709173E-03
 -4.52143012E-03 -2.91000822E-03  1.72798298E-03
Alpha MO coefficients                      R   N=        2304
  1.37547727E-15  1.18857635E-14 -3.67202363E-14  2.05672526E-01 -3.39580945E-16
  1.21226856E-15  4.22004524E-02  6.79117331E-15 -4.06898023E-15  8.04846610E-16
  3.82390188E-02 -1.68092367E-16  3.13953867E-17 -1.11840684E-02  8.83658730E-16
 -3.58089061E-16  2.01346979E-15 -5.51763052E-01  3.27819929E-16 -3.85300697E-16
 -4.27937716E-01  9.75411068E-17  4.02333642E-15  2.56979476E-16 -4.75266190E-03
 -5.55293182E-17  8.84046432E-17  1.21960538E-02  4.80678591E-15  2.32380325E-15
  9.09545667E-03 -8.80486824E-16  1.94051559E-16 -4.20283025E-16  1.94419349E-15
 -2.84609877E-02  2.46526825E-16 -1.34157827E-16  2.17385556E-01  1.37101327E-01
 -2.42703490E-03  5.83451182E-03 -1.63959748E-03 -2.17385556E-01 -1.37101327E-01
 -2.42703490E-03 -5.83451182E-03  1.63959748E-03 -8.55506027E-03  2.83260372E-02
 -1.40127286E-02 -3.80901256E-15  3.20251484E-01 -8.22346980E-02  4.19160409E-15
  9.97278096E-02  3.35973135E-03  6.11504280E-03  9.46679803E-16  2.89101631E-02
 -1.28747818E-02 -2.20120073E-15  5.01250111E-02 -1.04060041E-01 -2.19318430E-01
 -3.18698699E-15 -3.47519247E-01  1.61015376E-01 -3.21344613E-15 -2.24075696E-01
  1.42419488E-01 -6.73430037E-04 -3.33625180E-16 -1.03278745E-03 -1.08062985E-02
 -3.21953202E-17  2.85533352E-01  1.38469599E-01 -1.33244324E-16 -6.14335221E-03
 -8.77268713E-03  2.06112307E-01  6.27103470E-02 -4.08988367E-17  6.51875939E-03
  1.34019199E-02 -1.63621797E-01 -9.88988121E-02  1.02057458E-02  7.16016920E-03
 -8.89468390E-05 -1.63621797E-01 -9.88988121E-02 -1.02057458E-02  7.16016920E-03
 -8.89468390E-05  1.72485105E-02 -2.79031610E-02 -2.28559067E-02 -1.54125767E-15
 -2.39219358E-01 -2.95714405E-01  2.48624889E-15 -1.25846393E-01 -1.05171967E-01
  2.51330756E-02 -2.97275057E-17  5.89208331E-03  6.03418481E-03  2.03735201E-16
  3.49843679E-02 -6.74556600E-02 -1.51370102E-01 -5.55269850E-16 -1.75135994E-01
  3.48127645E-01 -7.19519148E-16 -1.21330398E-01  2.06791550E-01  5.99307301E-03
 -3.73500288E-17 -1.77972955E-02 -2.92840299E-03  8.72812868E-17 -2.75734789E-01
 -8.31673135E-02 -4.20218216E-16  1.60612731E-02  4.67733255E-04 -1.22104709E-02
 -3.87685617E-02 -1.27610008E-16 -8.08060368E-03  2.02649895E-02 -6.92852557E-03
 -9.60970174E-03  9.06413601E-04 -7.04420752E-03 -6.67284259E-03 -6.92852557E-03
 -9.60970174E-03 -9.06413601E-04 -7.04420752E-03 -6.67284259E-03  1.47191718E-15
  6.94432172E-16 -3.62524177E-15  3.80372008E-01  3.01729596E-15 -1.66181711E-15
  1.52761389E-01  3.12067074E-15 -3.54886775E-15  3.34706764E-16 -1.08826290E-02
 -1.73491497E-16  1.49998433E-16 -1.21689657E-02  2.42530302E-15 -2.38863162E-15
 -5.06185853E-15  2.87645341E-01 -2.44905492E-15  2.39920108E-15  1.90851352E-01
 -2.80088757E-15  4.21888606E-16 -1.52848878E-17  1.32353249E-02 -1.88072489E-17
 -1.44963086E-16 -7.92883607E-03  3.46911737E-15 -8.57316185E-16  1.26130075E-02
 -3.88231821E-16 -6.48965685E-17 -3.92807123E-17 -1.27393705E-15  1.45597018E-02
 -3.28671752E-16 -1.13853524E-16  2.38240028E-01  8.75203558E-02 -5.60652091E-03
  9.52059827E-03 -5.77798870E-03 -2.38240028E-01 -8.75203558E-02 -5.60652091E-03
 -9.52059827E-03  5.77798870E-03  2.49654295E-02 -4.79416274E-02 -3.39308206E-02
 -3.16580724E-15  1.96466105E-01 -2.08326851E-01  1.32007642E-14  9.41073456E-02
 -7.99527508E-02  2.22184047E-02  8.02972895E-16 -2.20380563E-02 -3.79325422E-03