                  Welcome to Q-Chem
     A Quantum Leap Into The Future Of Chemistry


 Q-Chem 6.2 (devel), Q-Chem, Inc., Pleasanton, CA (2024)

 E. Epifanovsky,  A. T. B. Gilbert,  Xintian Feng,  Joonho Lee,  Yuezhi Mao,  
 N. Mardirossian,  P. Pokhilko,  A. White,  M. Wormit,  M. P. Coons,  
 A. L. Dempwolff,  Zhengting Gan,  D. Hait,  P. R. Horn,  L. D. Jacobson,  
 I. Kaliman,  J. Kussmann,  A. W. Lange,  Ka Un Lao,  D. S. Levine,  Jie Liu,  
 S. C. McKenzie,  A. F. Morrison,  K. D. Nanda,  F. Plasser,  D. R. Rehn,  
 M. L. Vidal,  Zhi-Qiang You,  Ying Zhu,  Huseyin Aksu,  B. Alam,  
 B. Albrecht,  A. Aldossary,  E. Alguire,  J. H. Andersen,  
 J. E. Arias-Martinez,  V. Athavale,  D. Barton,  K. Begam,  A. Behn,  
 N. Bellonzi,  Y. A. Bernard,  E. J. Berquist,  H. Burton,  A. Carreras,  
 K. Carter-Fenk,  Mathew Chow,  Romit Chakraborty,  Chandrima Chakravarty,  
 Junhan Chen,  A. D. Chien,  K. D. Closser,  V. Cofer-Shabica,  L. Cunha,  
 S. Dasgupta,  Jia Deng,  Joseph Dickinson,  M. de Wergifosse,  
 M. Diedenhofen,  Hainam Do,  Wenjie Dou,  S. Ehlert,  Po-Tung Fang,  
 S. Fatehi,  Qingguo Feng,  Jonathan Fetherolf,  T. Friedhoff,  
 Thomas Froitzheim,  Sarai Folkestad,  B. Ganoe,  J. Gayvert,  Qinghui Ge,  
 G. Gidofalvi,  M. Gimferrer,  M. Goldey,  Montgomery Gray,  J. Gomes,  
 C. Gonzalez-Espinoza,  S. Gulania,  A. Gunina,  J. A. Gyamfi,  
 M. W. D. Hanson-Heine,  P. H. P. Harbach,  A. W. Hauser,  M. F. Herbst,  
 M. Hernandez Vera,  M. Hodecker,  Z. C. Holden,  S. Houck,  Xunkun Huang,  
 Kerwin Hui,  B. C. Huynh,  K. Ikeda,  M. Ivanov,  Nayanthara K. Jayadev,  
 Hyunjun Ji,  Zuxin Jin,  Hanjie Jiang,  Subrata Jana,  B. Kaduk,  
 S. Kaehler,  R. Kang,  K. Khistyaev,  Jaehoon Kim,  Yongbin Kim,  
 P. Klunzinger,  Z. Koczor-Benda,  Joong Hoon Koh,  D. Kosenkov,  
 Saikiran Kotaru,  L. Koulias,  T. Kowalczyk,  C. M. Krauter,  K. Kue,  
 A. Kunitsa,  T. Kus,  A. Landau,  K. V. Lawler,  D. Lefrancois,  S. Lehtola,  
 Rain Li,  Shaozhi Li,  Tao E. Li,  Yi-Pei Li,  Jiashu Liang,  M. Liebenthal,  
 Hung-Hsuan Lin,  You-Sheng Lin,  Fenglai Liu,  Kuan-Yu Liu,  Xiao Liu,  
 M. Loipersberger,  A. Luenser,  C. Malbon,  Aniket Mandal,  Manisha,  
 A. Manjanath,  P. Manohar,  E. Mansoor,  S. F. Manzer,  Shan-Ping Mao,  
 A. V. Marenich,  T. Markovich,  S. Mason,  F. Matz,  S. A. Maurer,  
 Samuel May,  Alexandra McIsaac,  P. F. McLaughlin,  M. F. S. J. Menger,  
 J.-M. Mewes,  S. A. Mewes,  P. Morgante,  Mohammad Mostafanejad,  
 Madhubani Mukherjee,  J. W. Mullinax,  Quyen Nguyen,  Avik Kumar Ojha,  
 K. J. Oosterbaan,  Eno Paenurk,  Xiaoliang Pan,  G. Paran,  V. Parravicini,  
 Alexander C. Paul,  Suranjan K. Paul,  F. Pavosevic,  Zheng Pei,  S. Prager,  
 E. I. Proynov,  E. Ramos,  B. Rana,  A. E. Rask,  A. Rettig,  R. M. Richard,  
 F. Rob,  E. Rossomme,  T. Scheele,  M. Scheurer,  M. Schneider,  
 P. E. Schneider,  Tim K. Schramm,  N. Sergueev,  S. M. Sharada,  
 Hengyuan Shen,  W. Skomorowski,  D. W. Small,  C. J. Stein,  
 Alistair J. Sterling,  Yingli Su,  Yu-Chuan Su,  E. J. Sundstrom,  
 J. Talbot,  Zhen Tao,  J. Thirman,  Hung-Yi Tsai,  T. Tsuchimochi,  
 N. M. Tubman,  C. Utku,  S. P. Veccham,  O. Vydrov,  Rahel Weiss,  
 J. Wenzel,  Jonathan Wong,  J. Witte,  H. Wu,  Yanze Wu,  A. Yamada,  
 Chou-Hsun Yang,  Kun Yao,  S. Yeganeh,  S. R. Yost,  Qi Yu,  A. Zech,  
 F. Zeller,  Chongxiao Zhao,  Igor Ying Zhang,  Xing Zhang,  Yu Zhang,  
 D. Zuev,  A. Aspuru-Guzik,  A. T. Bell,  N. A. Besley,  K. B. Bravaya,  
 B. R. Brooks,  D. Casanova,  Jeng-Da Chai,  Hsing-Ta Chen,  S. Coriani,  
 C. J. Cramer,  A. E. DePrince, III,  R. A. DiStasio Jr.,  A. Dreuw,  
 B. D. Dunietz,  T. R. Furlani,  W. A. Goddard III,  S. Grimme,  
 S. Hammes-Schiffer,  T. Head-Gordon,  W. J. Hehre,  Chao-Ping Hsu,  
 T.-C. Jagau,  Yousung Jung,  A. Klamt,  Jing Kong,  D. S. Lambrecht,  
 Xiangyuan Li,  WanZhen Liang,  N. J. Mayhall,  C. W. McCurdy,  J. B. Neaton,  
 T. Neudecker,  C. Ochsenfeld,  J. A. Parkhill,  R. Peverati,  
 V. A. Rassolov,  Haisheng Ren,  Yihan Shao,  L. V. Slipchenko,  
 R. P. Steele,  J. E. Subotnik,  A. J. W. Thom,  A. Tkatchenko,  
 D. G. Truhlar,  T. Van Voorhis,  Fan Wang,  T. A. Wesolowski,  K. B. Whaley,  
 H. L. Woodcock III,  P. M. Zimmerman,  S. Faraji,  P. M. W. Gill,  
 M. Head-Gordon,  J. M. Herbert,  A. I. Krylov

 Contributors to earlier versions of Q-Chem not listed above: 
 R. D. Adamson,  B. Austin,  R. Baer,  J. Baker,  G. J. O. Beran,  
 K. Brandhorst,  S. T. Brown,  E. F. C. Byrd,  Arup K. Chakraborty,  
 G. K. L. Chan,  Chun-Min Chang,  Yunqing Chen,  C.-L. Cheng,  
 Siu Hung Chien,  D. M. Chipman,  D. L. Crittenden,  H. Dachsel,  
 R. J. Doerksen,  A. D. Dutoi,  R. G. Edgar,  J. Fosso-Tande,  
 L. Fusti-Molnar,  D. Ghosh,  A. Ghysels,  A. Golubeva-Zadorozhnaya,  
 J. Gonthier,  M. S. Gordon,  S. R. Gwaltney,  G. Hawkins,  J. E. Herr,  
 A. Heyden,  S. Hirata,  E. G. Hohenstein,  G. Kedziora,  F. J. Keil,  
 C. Kelley,  Jihan Kim,  R. A. King,  R. Z. Khaliullin,  P. P. Korambath,  
 W. Kurlancheek,  A. Laurent,  A. M. Lee,  M. S. Lee,  S. V. Levchenko,  
 Ching Yeh Lin,  D. Liotard,  E. Livshits,  R. C. Lochan,  I. Lotan,  
 L. A. Martinez-Martinez,  P. E. Maslen,  N. Nair,  D. P. O'Neill,  
 D. Neuhauser,  E. Neuscamman,  C. M. Oana,  R. Olivares-Amaya,  R. Olson,  
 T. M. Perrine,  B. Peters,  P. A. Pieniazek,  A. Prociuk,  Y. M. Rhee,  
 J. Ritchie,  M. A. Rohrdanz,  E. Rosta,  N. J. Russ,  H. F. Schaefer III,  
 M. W. Schmidt,  N. E. Schultz,  S. Sharma,  N. Shenvi,  C. D. Sherrill,  
 A. C. Simmonett,  A. Sodt,  T. Stein,  D. Stuck,  K. S. Thanthiriwatte,  
 V. Vanovschi,  L. Vogt,  Tao Wang,  A. Warshel,  M. A. Watson,  
 C. F. Williams,  Q. Wu,  X. Xu,  Jun Yang,  W. Zhang,  Yan Zhao

   Please cite Q-Chem as follows:
  "Software for the frontiers of quantum chemistry:
   An overview of developments in the Q-Chem 5 package"
   J. Chem. Phys. 155, 084801 (2021)
   https://doi.org/10.1063/5.0055522 (open access)

 Q-Chem 6.2.1 for Intel X86 EM64T Linux

 Parts of Q-Chem use Armadillo 9.900.5 (Nocturnal Misbehaviour).
 http://arma.sourceforge.net/

 Q-Chem begins on Mon Jul  6 15:16:15 2026  

 Host: 
0

     Scratch files written to /media/HDD1/guest/qcscratch/qchem1081593//
 Processing $rem in /media/HDD1/qchem/qc621/config/preferences:
 Processing $rem in /home/guest/.qchemrc:
 Core orbitals will be frozen

 Checking the input file for inconsistencies... 	...done.

 Q-Chem warning in module forms1/BasisType.C, line 2998:

 You are not using the predefined 5D/6D in this basis set.


--------------------------------------------------------------
User input:
--------------------------------------------------------------
$molecule
0 1
  C    0.0000000   -0.0147269    0.7156012
  O    0.0000000    0.0695525   -0.6801439
  H    0.0000000    1.0112743    1.1376602
  H    0.0000000   -0.8665191   -1.0095561
  H    0.9151188   -0.5366486    1.0703452
  H   -0.9151188   -0.5366486    1.0703452
$end

$rem
MAX_SCF_CYCLES 2000
SCF_ALGORITHM DIIS_GDM
method eom-ccsd
IP_STATES [5]
basis cc-pvdz
GUI 2
sym_ignore true
symmetry false
PRINT_GENERAL_BASIS = TRUE
purecart 1111
PRINT_ORBITALS 10000000000
unrestricted true
CC_DO_DYSON TRUE
$end

--------------------------------------------------------------
 ----------------------------------------------------------------
             Standard Nuclear Orientation (Angstroms)
    I     Atom           X                Y                Z
 ----------------------------------------------------------------
    1      C       0.0000000000    -0.0147269000     0.7156012000
    2      O       0.0000000000     0.0695525000    -0.6801439000
    3      H       0.0000000000     1.0112743000     1.1376602000
    4      H       0.0000000000    -0.8665191000    -1.0095561000
    5      H       0.9151188000    -0.5366486000     1.0703452000
    6      H      -0.9151188000    -0.5366486000     1.0703452000
 ----------------------------------------------------------------
 Nuclear Repulsion Energy =          40.34560061 hartrees
 There are        9 alpha and        9 beta electrons
 Requested basis set is cc-pVDZ
 Basis set in general basis input format:
-----------------------------------------------------------------------
$basis
C    0
S    7    1.000000
   6.66500000E+03    6.91990000E-04 
   1.00000000E+03    5.32976000E-03 
   2.28000000E+02    2.70770000E-02 
   6.47100000E+01    1.01768130E-01 
   2.10600000E+01    2.74902850E-01 
   7.49500000E+00    4.50094590E-01 
   2.79700000E+00    2.86933450E-01 
S    7    1.000000
   6.66500000E+03    3.10000000E-07 
   1.00000000E+03   -2.72700000E-05 
   6.47100000E+01   -1.80535000E-03 
   2.10600000E+01   -5.86561000E-03 
   7.49500000E+00   -5.51393100E-02 
   2.79700000E+00   -6.69876600E-02 
   5.21500000E-01    5.47743760E-01 
S    1    1.000000
   1.59600000E-01    1.00000000E+00 
P    3    1.000000
   9.43900000E+00    3.81090000E-02 
   2.00200000E+00    2.09480000E-01 
   5.45600000E-01    5.08557000E-01 
P    1    1.000000
   1.51700000E-01    1.00000000E+00 
D    1    1.000000
   5.50000000E-01    1.00000000E+00 
****
O    0
S    7    1.000000
   1.17200000E+04    7.10000000E-04 
   1.75900000E+03    5.47087000E-03 
   4.00800000E+02    2.78370000E-02 
   1.13700000E+02    1.04858510E-01 
   3.70300000E+01    2.83260430E-01 
   1.32700000E+01    4.50493790E-01 
   5.02500000E+00    2.72494270E-01 
S    7    1.000000
   1.17200000E+04   -1.60000000E-07 
   1.75900000E+03   -3.15300000E-05 
   1.13700000E+02   -2.12216000E-03 
   3.70300000E+01   -7.19768000E-03 
   1.32700000E+01   -6.43899900E-02 
   5.02500000E+00   -5.59550300E-02 
   1.01300000E+00    5.60848120E-01 
S    1    1.000000
   3.02300000E-01    1.00000000E+00 
P    3    1.000000
   1.77000000E+01    4.30180000E-02 
   3.85400000E+00    2.28913000E-01 
   1.04600000E+00    5.08728000E-01 
P    1    1.000000
   2.75300000E-01    1.00000000E+00 
D    1    1.000000
   1.18500000E+00    1.00000000E+00 
****
H    0
S    3    1.000000
   1.30100000E+01    1.96850000E-02 
   1.96200000E+00    1.37977000E-01 
   4.44600000E-01    4.78148000E-01 
S    1    1.000000
   1.22000000E-01    1.00000000E+00 
P    1    1.000000
   7.27000000E-01    1.00000000E+00 
****
H    0
S    3    1.000000
   1.30100000E+01    1.96850000E-02 
   1.96200000E+00    1.37977000E-01 
   4.44600000E-01    4.78148000E-01 
S    1    1.000000
   1.22000000E-01    1.00000000E+00 
P    1    1.000000
   7.27000000E-01    1.00000000E+00 
****
H    0
S    3    1.000000
   1.30100000E+01    1.96850000E-02 
   1.96200000E+00    1.37977000E-01 
   4.44600000E-01    4.78148000E-01 
S    1    1.000000
   1.22000000E-01    1.00000000E+00 
P    1    1.000000
   7.27000000E-01    1.00000000E+00 
****
H    0
S    3    1.000000
   1.30100000E+01    1.96850000E-02 
   1.96200000E+00    1.37977000E-01 
   4.44600000E-01    4.78148000E-01 
S    1    1.000000
   1.22000000E-01    1.00000000E+00 
P    1    1.000000
   7.27000000E-01    1.00000000E+00 
****
$end
-----------------------------------------------------------------------
 There are 24 shells and 48 basis functions
 Total memory of 2000 MB is distributed as follows: 
   MEM_STATIC is set to 192 MB
   QALLOC/CCMAN JOB total memory use is  1808 MB
 Warning: actual memory use might exceed 2000 MB

 Total QAlloc Memory Limit   2000 MB
 Mega-Array Size       188 MB
 MEM_STATIC part       192 MB


                       Distance Matrix (Angstroms)
             C (  1)   O (  2)   H (  3)   H (  4)   H (  5)
   O (  2)  1.398287
   H (  3)  1.109420  2.047255
   H (  4)  1.923985  0.992342  2.852481
   H (  5)  1.111615  2.066188  1.799455  2.296137
   H (  6)  1.111615  2.066188  1.799455  2.296137  1.830238

 A cutoff of  1.0D-14 yielded    300 shell pairs
 There are      1220 function pairs (      1329 Cartesian)
 Smallest overlap matrix eigenvalue = 1.66E-02

 Scale SEOQF with 1.000000e+00/1.000000e+00/1.000000e+00

 Standard Electronic Orientation quadrupole field applied
 Nucleus-field energy     =    -0.0000000099 hartrees
 Guess from superposition of atomic densities
 Warning:  Energy on first SCF cycle will be non-variational
 SAD guess density has 18.000000 electrons

 -----------------------------------------------------------------------
  General SCF calculation program by
  Eric Jon Sundstrom, Paul Horn, Yuezhi Mao, Dmitri Zuev, Alec White,
  David Stuck, Shaama M.S., Shane Yost, Joonho Lee, David Small,
  Daniel Levine, Susi Lehtola, Hugh Burton, Evgeny Epifanovsky,
  Bang C. Huynh
 -----------------------------------------------------------------------
 Hartree-Fock
 using 4 threads for integral computing
 -------------------------------------------------------
 OpenMP Integral computing Module                
 Release: version 1.0, May 2013, Q-Chem Inc. Pittsburgh 
 -------------------------------------------------------
 A unrestricted SCF calculation will be
 performed using DIIS, GDM
 SCF converges when RMS gradient is below 1.0e-08
 ---------------------------------------
  Cycle       Energy         DIIS error
 ---------------------------------------
    1    -115.2479856581      5.08e-02  
    2    -115.0102057946      5.73e-03  Done DIIS. Switching to GDM
 ---------------------------------------
  Cycle       Energy        RMS Gradient
 ---------------------------------------
    1    -115.0102057946      6.06e-02   Normal BFGS step
    2    -115.0390586284      3.26e-02   Normal BFGS step
    3    -115.0460579884      2.94e-03   Normal BFGS step
    4    -115.0461948714      1.02e-03   Normal BFGS step
    5    -115.0462040260      2.50e-04   Normal BFGS step
    6    -115.0462046073      5.84e-05   Normal BFGS step
    7    -115.0462046488      1.96e-05   Normal BFGS step
    8    -115.0462046507      2.62e-06   Normal BFGS step
    9    -115.0462046508      7.05e-07   Normal BFGS step
   10    -115.0462046508      1.62e-07   Normal BFGS step
   11    -115.0462046508      3.58e-08   Normal BFGS step
   12    -115.0462046508      9.62e-09  Convergence criterion met
 ---------------------------------------
 SCF time:   CPU 1.29s  wall 1.00s 
<S^2> =         -0.000000000
 SCF   energy =  -115.04620465
 Total energy =  -115.04620465


 ------------------------------------------------------------------------------

   CCMAN2: suite of methods based on coupled cluster
           and equation of motion theories.

   Components:
   * libvmm-1.3-trunk
     by Evgeny Epifanovsky, Ilya Kaliman.
   * libtensor-2.5-trunk
     by Evgeny Epifanovsky, Michael Wormit, Dmitry Zuev, Sam Manzer, 
        Ilya Kaliman.
   * libcc-2.5-trunk
     by Evgeny Epifanovsky, Arik Landau, Tomasz Kus, Kirill Khistyaev, 
        Dmitry Zuev, Prashant Manohar, Xintian Feng, Anna Krylov, 
        Matthew Goldey, Alec White, Thomas Jagau, Kaushik Nanda, 
        Anastasia Gunina, Alexander Kunitsa, Joonho Lee.

   CCMAN original authors:
   Anna I. Krylov, C. David Sherrill, Steven R. Gwaltney,
   Edward F. C. Byrd (2000)
   Sergey V. Levchenko, Lyudmila V. Slipchenko, Tao Wang,
   Ana-Maria C. Cristian (2003)
   Piotr A. Pieniazek, C. Melania Oana, Evgeny Epifanovsky (2007)
   Prashant Manohar (2009)

 ------------------------------------------------------------------------------


 Allocating and initializing 1808MB of RAM...
 Calculation will run on 4 cores.


 Alpha MOs, Unrestricted
 -- Occupied --                  
-20.553 -11.279  -1.353  -0.910  -0.678  -0.618  -0.589  -0.489
  1 A     2 A     3 A     4 A     5 A     6 A     7 A     8 A                  
 -0.439
  9 A                                                                          
 -- Virtual --                   
  0.180   0.221   0.264   0.268   0.365   0.631   0.648   0.732
 10 A    11 A    12 A    13 A    14 A    15 A    16 A    17 A                  
  0.790   0.854   0.882   0.887   1.118   1.148   1.163   1.266
 18 A    19 A    20 A    21 A    22 A    23 A    24 A    25 A                  
  1.327   1.443   1.587   1.660   1.661   1.842   1.890   1.934
 26 A    27 A    28 A    29 A    30 A    31 A    32 A    33 A                  
  1.948   2.027   2.145   2.267   2.356   2.364   2.451   2.717
 34 A    35 A    36 A    37 A    38 A    39 A    40 A    41 A                  
  2.724   2.744   3.295   3.390   3.454   3.584   4.050
 42 A    43 A    44 A    45 A    46 A    47 A    48 A                          

 Beta MOs, Unrestricted
 -- Occupied --                  
-20.553 -11.279  -1.353  -0.910  -0.678  -0.618  -0.589  -0.489
  1 A     2 A     3 A     4 A     5 A     6 A     7 A     8 A                  
 -0.439
  9 A                                                                          
 -- Virtual --                   
  0.180   0.221   0.264   0.268   0.365   0.631   0.648   0.732
 10 A    11 A    12 A    13 A    14 A    15 A    16 A    17 A                  
  0.790   0.854   0.882   0.887   1.118   1.148   1.163   1.266
 18 A    19 A    20 A    21 A    22 A    23 A    24 A    25 A                  
  1.327   1.443   1.587   1.660   1.661   1.842   1.890   1.934
 26 A    27 A    28 A    29 A    30 A    31 A    32 A    33 A                  
  1.948   2.027   2.145   2.267   2.356   2.364   2.451   2.717
 34 A    35 A    36 A    37 A    38 A    39 A    40 A    41 A                  
  2.724   2.744   3.295   3.390   3.454   3.584   4.050
 42 A    43 A    44 A    45 A    46 A    47 A    48 A                          

 Occupation and symmetry of molecular orbitals

 Point group: C1 (1 irreducible representation).

                           A     All 
 -------------------------------------
 All molecular orbitals:
  - Alpha                  48    48  
  - Beta                   48    48  
 -------------------------------------
 Alpha orbitals:
  - Frozen occupied        2     2   
  - Active occupied        7     7   
  - Active virtual         39    39  
  - Frozen virtual         0     0   
 -------------------------------------
 Beta orbitals:
  - Frozen occupied        2     2   
  - Active occupied        7     7   
  - Active virtual         39    39  
  - Frozen virtual         0     0   
 -------------------------------------

 Import integrals:   CPU 0.00 s  wall 0.00 s

 Import integrals:   CPU 0.50 s  wall 0.23 s


 MP2  CPU 0.01 s  wall 0.00 s
Running a double precision version
           CCSD T amplitudes will be solved using DIIS.

           Start     Size      MaxIter   EConv     TConv     
           3         7         100       1.00e-06  1.00e-04  
 ------------------------------------------------------------------------------
           Energy (a.u.)   Ediff      Tdiff       Comment
 ------------------------------------------------------------------------------
          -115.38615629                           
     1    -115.40100288   1.48e-02   5.29e-01     
     2    -115.40861563   7.61e-03   6.46e-02     
     3    -115.41011822   1.50e-03   1.98e-02     
     4    -115.41104729   9.29e-04   8.56e-03     Switched to DIIS steps.
     5    -115.41118064   1.33e-04   2.76e-03     
     6    -115.41118570   5.06e-06   6.16e-04     
     7    -115.41118561   8.44e-08   1.60e-04     
     8    -115.41118581   1.98e-07   6.58e-05     
 ------------------------------------------------------------------------------
          -115.41118581                           CCSD T converged.

 End of double precision
 SCF energy                 = -115.04620465
 MP2 energy                 = -115.38615629
 CCSD correlation energy    =   -0.36498116
 CCSD total energy          = -115.41118581

 CCSD  T1^2 = 0.0017  T2^2 = 0.1185  Leading amplitudes:

 Amplitude    Orbitals with energies
 -0.0078       9 (A) B                   ->    12 (A) B                   
              -0.4388                          0.2640                     
 -0.0078       9 (A) A                   ->    12 (A) A                   
              -0.4388                          0.2640                     
 -0.0069       7 (A) B                   ->    14 (A) B                   
              -0.5889                          0.3651                     
 -0.0069       7 (A) A                   ->    14 (A) A                   
              -0.5889                          0.3651                     

 Amplitude    Orbitals with energies
 -0.0249       7 (A) A       7 (A) B     ->    17 (A) A      17 (A) B     
              -0.5889       -0.5889            0.7317        0.7317       
  0.0249       7 (A) A       7 (A) B     ->    17 (A) B      17 (A) A     
              -0.5889       -0.5889            0.7317        0.7317       
  0.0249       7 (A) B       7 (A) A     ->    17 (A) A      17 (A) B     
              -0.5889       -0.5889            0.7317        0.7317       
 -0.0249       7 (A) B       7 (A) A     ->    17 (A) B      17 (A) A     
              -0.5889       -0.5889            0.7317        0.7317       

 Computing CCSD intermediates for later calculations in double precision
 Finished.

Running a double precision version
           CCSD Lambda amplitudes will be solved using DIIS.
           Start     Size      MaxIter   EConv     LConv     
           3         7         100       1.00e-06  1.00e-04  
 ------------------------------------------------------------------------------
            Enorm      Ldiff       Comment
 ------------------------------------------------------------------------------
     1     1.92e-02   1.32e-02     
     2     4.51e-03   2.41e-03     
     3     1.43e-03   4.94e-04     
     4     6.36e-04   2.71e-04     Switched to DIIS steps.
     5     1.58e-04   9.94e-05     
     6     5.97e-05   1.47e-05     
     7     1.82e-05   1.88e-06     
     8     4.91e-06   1.71e-07     
     9     1.61e-06   1.39e-07     
    10     6.03e-07   4.78e-09     
 ------------------------------------------------------------------------------
                                   CCSD Lambda converged.


 CCSD  CPU 2.80 s  wall 1.01 s
        Solving for EOMIP-CCSD A transitions.

Running a double precision version
      EOMIP-CCSD/MP2 right amplitudes will be solved using Davidson.
        Amplitudes will be solved using standard  algorithm.
     Hard-coded thresholds: 
     LinDepThresh=1.00e-15  NormThresh=1.00e-06  ReorthogonThresh=1.00e-02

      Roots     MaxVec    MaxIter   Precond   Conv      Shift    
      5         120       60        1         1.00e-05  0.00e+00  
 ------------------------------------------------------------------------------
      Iter ConvRoots NVecs ResNorm^2 Current eigenvalues (eV)
 ------------------------------------------------------------------------------
      0    0      5     1.56e-01   13.5320   14.8725   17.7241   18.1474   20.1172   
      1    0      10    3.03e-02   10.8791   12.6681   15.3761   15.9484   17.7843   
      2    0      15    8.76e-04   10.3420   12.2446   14.9151   15.5307   17.2684   
      3    0      20    7.26e-05   10.3267   12.2302   14.8967   15.5131   17.2402   
      4    4      25    8.67e-06   10.3271*  12.2308*  14.8968*  15.5130*  17.2394   
      5    5      26    4.51e-06   10.3271*  12.2307*  14.8968*  15.5130*  17.2383*  

     Davidson procedure converged

 EOMIP transition 1/A
 Total energy = -115.03167348 a.u.  Excitation energy = 10.3271 eV.
 R1^2 = 0.9387  R2^2 = 0.0613  Res^2 = 2.66e-06
 Conv-d = yes

 Amplitude    Transitions between orbitals
 -0.9587       9 (A) A                   ->    infty        
  0.1399       6 (A) A                   ->    infty        

              Summary of significant orbitals:

               Number  Type             Irrep      Energy
               6       Occ  Alpha       6 (A)     -0.6175
               9       Occ  Alpha       9 (A)     -0.4388


 EOMIP transition 2/A
 Total energy = -114.96171429 a.u.  Excitation energy = 12.2307 eV.
 R1^2 = 0.9444  R2^2 = 0.0556  Res^2 = 3.03e-06
 Conv-d = yes

 Amplitude    Transitions between orbitals
  0.9573       8 (A) A                   ->    infty        
  0.1546       7 (A) A                   ->    infty        
 -0.0547       5 (A) A                   ->    infty        
 -0.0249       4 (A) A                   ->    infty        

              Summary of significant orbitals:

               Number  Type             Irrep      Energy
               4       Occ  Alpha       4 (A)     -0.9100
               5       Occ  Alpha       5 (A)     -0.6778
               7       Occ  Alpha       7 (A)     -0.5889
               8       Occ  Alpha       8 (A)     -0.4890


 EOMIP transition 3/A
 Total energy = -114.86373911 a.u.  Excitation energy = 14.8968 eV.
 R1^2 = 0.9415  R2^2 = 0.0585  Res^2 = 8.64e-06
 Conv-d = yes

 Amplitude    Transitions between orbitals
 -0.9534       7 (A) A                   ->    infty        
  0.1656       8 (A) A                   ->    infty        
  0.0679       5 (A) A                   ->    infty        
  0.0203       4 (A) A                   ->    infty        

              Summary of significant orbitals:

               Number  Type             Irrep      Energy
               4       Occ  Alpha       4 (A)     -0.9100
               5       Occ  Alpha       5 (A)     -0.6778
               7       Occ  Alpha       7 (A)     -0.5889
               8       Occ  Alpha       8 (A)     -0.4890


 EOMIP transition 4/A
 Total energy = -114.84109505 a.u.  Excitation energy = 15.5130 eV.
 R1^2 = 0.9382  R2^2 = 0.0618  Res^2 = 4.58e-06
 Conv-d = yes

 Amplitude    Transitions between orbitals
 -0.9567       6 (A) A                   ->    infty        
 -0.1515       9 (A) A                   ->    infty        

              Summary of significant orbitals:

               Number  Type             Irrep      Energy
               6       Occ  Alpha       6 (A)     -0.6175
               9       Occ  Alpha       9 (A)     -0.4388


 EOMIP transition 5/A
 Total energy = -114.77768817 a.u.  Excitation energy = 17.2383 eV.
 R1^2 = 0.9376  R2^2 = 0.0624  Res^2 = 3.61e-06
 Conv-d = yes

 Amplitude    Transitions between orbitals
 -0.9631       5 (A) A                   ->    infty        
 -0.0804       7 (A) A                   ->    infty        
 -0.0463       8 (A) A                   ->    infty        
 -0.0272       4 (A) A                   ->    infty        

              Summary of significant orbitals:

               Number  Type             Irrep      Energy
               4       Occ  Alpha       4 (A)     -0.9100
               5       Occ  Alpha       5 (A)     -0.6778
               7       Occ  Alpha       7 (A)     -0.5889
               8       Occ  Alpha       8 (A)     -0.4890


Running a double precision version
      EOMIP-CCSD/MP2 left amplitudes will be solved using Davidson.
        Amplitudes will be solved using MOM  algorithm.
     Hard-coded thresholds: 
     LinDepThresh=1.00e-15  NormThresh=1.00e-06  ReorthogonThresh=1.00e-02

      Roots     MaxVec    MaxIter   Precond   Conv      Shift    
      5         120       60        1         1.00e-05  0.00e+00  
 ------------------------------------------------------------------------------
      Iter ConvRoots NVecs ResNorm^2 Current eigenvalues (eV)
 ------------------------------------------------------------------------------
      0    0      5     5.44e-03   10.3271   12.2307   14.8968   15.5130   17.2383   
      1    0      10    5.87e-04   10.3269   12.2305   14.8964   15.5129   17.2384   
      2    0      15    9.77e-05   10.3270   12.2306   14.8965   15.5130   17.2383   
      3    3      20    5.87e-06   10.3270*  12.2306*  14.8967   15.5130*  17.2384   
      4    5      22    1.33e-06   10.3270*  12.2306*  14.8967*  15.5130*  17.2384*  

     Davidson procedure converged


 EOMIP-CCSD  CPU 1.22 s  wall 0.94 s

 Start computing the transition properties

 ------------------------------------------------------------------------------
 State A: ccsd: 0/A
 State B: eomip_ccsd/a: 1/A

       ***    Dyson orbital calculation   *** 

 Reference -- EOM-IP-CCSD state  1/A   transition
 Energy difference = -10.3271 eV.

 Left Dyson orbital norm is 0.9589

Left alpha Dyson orbital in the MO basis (canonical Q-Chem's ordering):
0  -2.0340e-16 
1  -1.1796e-16 
2  4.5103e-16  
3  -1.3323e-15 
4  -2.2482e-15 
5  1.4118e-01  
6  -1.8830e-14 
7  -1.9998e-14 
8  -9.8951e-01 
9  -1.1033e-15 
10 -1.0408e-17 
11 1.6651e-02  
12 -1.5068e-14 
13 8.6736e-18  
14 3.2266e-16  
15 -9.7833e-03 
16 4.6404e-16  
17 5.2909e-16  
18 2.9407e-03  
19 -2.1493e-15 
20 -7.5634e-16 
21 5.2042e-16  
22 -1.7650e-02 
23 2.2204e-16  
24 -7.8843e-16 
25 -1.5142e-02 
26 8.8644e-16  
27 6.0358e-05  
28 -1.4564e-07 
29 -1.2815e-15 
30 1.2792e-03  
31 -1.4181e-15 
32 -6.2114e-16 
33 4.3346e-04  
34 -1.9516e-17 
35 -9.1268e-16 
36 -4.6062e-16 
37 -1.3598e-03 
38 -1.6458e-16 
39 5.9609e-16  
40 -1.8314e-03 
41 -2.2898e-16 
42 5.0470e-16  
43 2.9951e-05  
44 -1.4401e-04 
45 -6.5339e-16 
46 -1.8412e-16 
47 3.2255e-17  

Decomposition over AOs for the left alpha Dyson orbital:
-4.36165338e-16
-2.90794643e-15
1.25285679e-14
1.80845687e-01
3.75508977e-15
-1.06743546e-15
4.14300524e-02
-2.21551732e-15
-1.06373555e-16
-1.27700568e-02
6.51849148e-16
4.55846752e-16
4.09560333e-02
-3.50456295e-16
8.38440089e-16
-1.08216142e-15
-7.28473748e-15
-5.54001318e-01
-5.88539553e-15
2.02281494e-15
-4.82213409e-01
-3.42652338e-15
1.90129080e-16
1.23179880e-02
4.62441274e-17
-1.04910189e-16
-5.72966329e-03
-1.45714795e-16
3.44239295e-15
3.81341313e-15
7.82422080e-03
1.95356561e-16
1.67149715e-16
4.35459379e-15
8.28775134e-16
-3.17807503e-02
3.45717256e-16
3.29910897e-16
2.02845928e-01
1.41526216e-01
-2.91150618e-03
5.37938957e-03
-1.49592083e-03
-2.02845928e-01
-1.41526216e-01
-2.91150618e-03
-5.37938957e-03
1.49592083e-03
   *****

 Right Dyson orbital norm is 0.9517

Right alpha Dyson orbital in the MO basis (canonical Q-Chem's ordering):
0  -2.0687e-16 
1  -1.1796e-16 
2  4.4409e-16  
3  -1.1380e-15 
4  -1.9013e-15 
5  1.4648e-01  
6  -1.9453e-14 
7  -1.9918e-14 
8  -9.8892e-01 
9  -1.2976e-15 
10 2.2204e-16  
11 1.3509e-02  
12 -1.2469e-14 
13 -3.9465e-17 
14 1.9776e-16  
15 -7.0304e-03 
16 4.8008e-16  
17 5.7116e-16  
18 2.8839e-03  
19 -2.1302e-15 
20 -7.5938e-16 
21 6.8348e-16  
22 -1.3504e-02 
23 -1.2143e-16 
24 -7.6762e-16 
25 -1.2480e-02 
26 8.8297e-16  
27 -4.6238e-05 
28 8.8537e-05  
29 -1.6142e-15 
30 1.2735e-03  
31 -1.4142e-15 
32 -5.6476e-16 
33 1.2615e-03  
34 -4.4235e-17 
35 -9.3296e-16 
36 -4.6000e-16 
37 -1.0275e-03 
38 -1.9863e-16 
39 6.3003e-16  
40 -1.3392e-03 
41 -1.1970e-16 
42 5.8699e-16  
43 4.7926e-05  
44 -9.0563e-05 
45 -6.6022e-16 
46 -2.0188e-16 
47 2.9545e-17  

Decomposition over AOs for the right alpha Dyson orbital:
-4.58846586e-16
-2.86915867e-15
1.24001400e-14
1.78779138e-01
3.63043855e-15
-1.00250447e-15
4.66172323e-02
-2.04804291e-15
-6.51933812e-17
-1.25110270e-02
6.39807367e-16
4.62502362e-16
3.97701451e-02
-3.47638857e-16
8.46447705e-16
-1.15838029e-15
-7.22372824e-15
-5.60596301e-01
-5.93648474e-15
2.06293366e-15
-4.79939954e-01
-3.43842287e-15
2.11455520e-16
1.22612793e-02
4.78999518e-17
-1.02926320e-16
-5.69031989e-03
-1.41024639e-16
3.42323099e-15
3.58907344e-15
7.51013297e-03
1.93294676e-16
1.72907541e-16
4.33493065e-15
8.51840344e-16
-3.07067202e-02
3.69370455e-16
3.27828979e-16
2.00300080e-01
1.35636691e-01
-3.13648380e-03
5.37863973e-03
-1.88576465e-03
-2.00300080e-01
-1.35636691e-01
-3.13648380e-03
-5.37863973e-03
1.88576465e-03
   *****

     End transition

 ------------------------------------------------------------------------------
 State A: ccsd: 0/A
 State B: eomip_ccsd/a: 2/A

       ***    Dyson orbital calculation   *** 

 Reference -- EOM-IP-CCSD state  2/A   transition
 Energy difference = -12.2307 eV.

 Left Dyson orbital norm is 0.9635

Left alpha Dyson orbital in the MO basis (canonical Q-Chem's ordering):
0  1.9017e-16  
1  -1.7694e-16 
2  2.1881e-02  
3  -2.3509e-02 
4  -5.5280e-02 
5  2.5327e-14  
6  1.5574e-01  
7  9.8538e-01  
8  -2.0470e-14 
9  4.0580e-03  
10 8.5934e-03  
11 -9.4508e-15 
12 -1.4364e-02 
13 -3.5727e-03 
14 -2.5949e-04 
15 1.4572e-16  
16 2.0267e-03  
17 9.3242e-03  
18 3.6776e-16  
19 -8.6955e-04 
20 7.2811e-03  
21 1.0769e-02  
22 -9.2027e-16 
23 -1.3749e-03 
24 -7.5592e-03 
25 -4.9461e-16 
26 -1.2227e-03 
27 6.3557e-16  
28 -5.4410e-15 
29 -2.0096e-03 
30 7.0517e-16  
31 -3.0061e-03 
32 2.0998e-03  
33 -1.8692e-16 
34 -6.2733e-04 
35 3.1607e-03  
36 -3.9956e-04 
37 8.5413e-16  
38 4.2446e-03  
39 2.0617e-04  
40 9.4044e-16  
41 -7.5415e-04 
42 -1.6584e-03 
43 5.0754e-17  
44 -5.7376e-16 
45 1.1646e-03  
46 -2.0267e-03 
47 7.3202e-04  

Decomposition over AOs for the left alpha Dyson orbital:
9.87402251e-03
-3.36044330e-02
1.65794227e-02
6.12599487e-15
-2.67775970e-01
1.29145532e-01
3.43114983e-15
-8.73322951e-02
1.31238755e-02
-1.38336104e-16
-3.14892322e-02
-1.15732127e-02
4.96500325e-16
1.42772673e-02
-5.46652779e-02
1.11069976e-01
2.57916282e-01
-5.60299760e-15
3.69578487e-01
-2.10252562e-01
-5.18007263e-15
2.70006639e-01
-1.92996879e-01
1.41006017e-16
3.89394552e-03
-1.20003687e-03
1.13254215e-16
1.20550728e-02
-2.37829532e-01
-1.32796030e-01
3.53516855e-16
4.79683913e-03
8.88339539e-03
-2.11742319e-01
-6.68560975e-02
-3.85831719e-16
-5.60826243e-03
-1.89567946e-02
1.56616466e-01
1.07330065e-01
-1.00331509e-02
-5.43058690e-03
1.27308388e-03
1.56616466e-01
1.07330065e-01
1.00331509e-02
-5.43058690e-03
1.27308388e-03
   *****

 Right Dyson orbital norm is 0.9519

Right alpha Dyson orbital in the MO basis (canonical Q-Chem's ordering):
0  1.8345e-16  
1  -1.9082e-16 
2  2.4524e-02  
3  -2.6203e-02 
4  -5.6891e-02 
5  2.7478e-14  
6  1.5931e-01  
7  9.8471e-01  
8  -2.0210e-14 
9  2.9479e-03  
10 6.3648e-03  
11 -7.4246e-15 
12 -1.1863e-02 
13 -2.4068e-03 
14 -1.1417e-03 
15 1.4745e-16  
16 1.1462e-03  
17 7.3359e-03  
18 4.1590e-16  
19 -8.5848e-04 
20 6.8656e-03  
21 7.9275e-03  
22 -8.7213e-16 
23 -1.7382e-03 
24 -6.2520e-03 
25 -4.8594e-16 
26 -1.2379e-03 
27 6.2629e-16  
28 -3.0835e-15 
29 -1.2339e-03 
30 6.8001e-16  
31 -3.2831e-03 
32 1.9771e-03  
33 -1.9754e-16 
34 -2.6748e-04 
35 2.8492e-03  
36 -4.3785e-04 
37 7.7347e-16  
38 3.6540e-03  
39 2.3657e-04  
40 8.2529e-16  
41 -6.2399e-04 
42 -1.1502e-03 
43 4.6553e-17  
44 -5.7409e-16 
45 9.1038e-04  
46 -1.7600e-03 
47 7.0732e-04  

Decomposition over AOs for the right alpha Dyson orbital:
9.87775176e-03
-3.31229605e-02
1.74179697e-02
5.42971572e-15
-2.65458733e-01
1.27606097e-01
3.15603066e-15
-9.00011213e-02
1.28787071e-02
-9.74617177e-17
-3.04484866e-02
-1.22282416e-02
4.98556559e-16
1.41446913e-02
-5.52511820e-02
1.14099403e-01
2.56745753e-01
-6.08513267e-15
3.72933203e-01
-2.13992936e-01
-5.46804963e-15
2.69753450e-01
-1.93088016e-01
1.52545462e-16
3.87666080e-03
-1.38871608e-03
9.20988940e-17
1.20838503e-02
-2.37239849e-01
-1.29325971e-01
3.33064404e-16
5.19714003e-03
9.08056448e-03
-2.10422617e-01
-6.44125699e-02
-3.97383796e-16
-6.69181245e-03
-1.87070080e-02
1.56231473e-01
1.04197322e-01
-1.00039711e-02
-5.07936825e-03
1.00810707e-03
1.56231473e-01
1.04197322e-01
1.00039711e-02
-5.07936825e-03
1.00810707e-03
   *****

     End transition

 ------------------------------------------------------------------------------
 State A: ccsd: 0/A
 State B: eomip_ccsd/a: 3/A

       ***    Dyson orbital calculation   *** 

 Reference -- EOM-IP-CCSD state  3/A   transition
 Energy difference = -14.8968 eV.

 Left Dyson orbital norm is 0.9617

Left alpha Dyson orbital in the MO basis (canonical Q-Chem's ordering):
0  -7.1126e-16 
1  -4.5493e-16 
2  -1.0045e-02 
3  1.7633e-02  
4  6.9468e-02  
5  -8.6971e-14 
6  -9.8177e-01 
7  1.7404e-01  
8  2.3779e-15  
9  3.2650e-03  
10 -5.8863e-03 
11 -6.0542e-16 
12 9.9694e-04  
13 1.2369e-02  
14 -1.3509e-02 
15 -2.2335e-17 
16 -3.4637e-03 
17 -5.7226e-03 
18 -5.8092e-16 
19 4.3194e-04  
20 -1.1513e-03 
21 -7.6923e-03 
22 1.8041e-16  
23 2.7844e-04  
24 6.8542e-03  
25 -9.5236e-16 
26 -1.0813e-03 
27 -1.0018e-16 
28 5.9202e-15  
29 1.8191e-03  
30 5.1066e-17  
31 -4.4844e-03 
32 4.1778e-03  
33 -1.1243e-15 
34 1.9456e-03  
35 6.2881e-05  
36 2.8919e-03  
37 -2.7452e-16 
38 -2.2213e-03 
39 5.6551e-04  
40 3.0607e-16  
41 -4.2789e-04 
42 -1.7782e-03 
43 9.5545e-17  
44 2.4682e-16  
45 -1.6344e-03 
46 2.1263e-03  
47 5.6144e-04  

Decomposition over AOs for the left alpha Dyson orbital:
-3.74553358e-03
1.49677846e-02
4.10552297e-03
-6.11283965e-15
-2.76916320e-01
-2.85806611e-01
-3.35304829e-15
-1.55254863e-01
-1.18192134e-01
5.21782457e-16
-2.00829136e-03
2.91364218e-02
-6.24766044e-17
9.77400301e-03
2.65744571e-02
-5.13977438e-02
-1.17435903e-01
-5.20692937e-15
-8.31048056e-02
3.43745349e-01
-4.13082333e-15
-7.50930097e-02
2.17912899e-01
1.33363632e-16
-1.77017603e-02
9.60609846e-03
-2.40447963e-16
-2.65496733e-04
-3.01017068e-01
-1.12861395e-01
-1.86259456e-16
1.52409277e-02
1.08260738e-03
-7.83759729e-02
-6.38923671e-02
-4.60245564e-16
-1.27754748e-02
1.64150416e-02
3.87651375e-02
1.03846341e-02
-2.75495910e-03
-5.89647418e-03
-7.03465551e-03
3.87651375e-02
1.03846341e-02
2.75495910e-03
-5.89647418e-03
-7.03465551e-03
   *****

 Right Dyson orbital norm is 0.9505

Right alpha Dyson orbital in the MO basis (canonical Q-Chem's ordering):
0  -7.1319e-16 
1  -4.4409e-16 
2  -1.0710e-02 
3  2.0420e-02  
4  7.2061e-02  
5  -8.5724e-14 
6  -9.8227e-01 
7  1.7040e-01  
8  2.2623e-15  
9  2.9500e-03  
10 -5.2146e-03 
11 -2.1081e-15 
12 -7.1256e-04 
13 8.7000e-03  
14 -1.0897e-02 
15 1.1829e-16  
16 -1.8813e-03 
17 -4.5814e-03 
18 -6.7698e-16 
19 4.0189e-04  
20 1.6136e-04  
21 -6.4957e-03 
22 2.0990e-16  
23 2.9071e-04  
24 5.1768e-03  
25 -8.8601e-16 
26 -8.4471e-04 
27 -1.0777e-16 
28 4.5350e-15  
29 1.3635e-03  
30 4.8681e-17  
31 -4.0618e-03 
32 4.1149e-03  
33 -1.1120e-15 
34 1.6908e-03  
35 2.7945e-04  
36 2.6005e-03  
37 -2.1814e-16 
38 -1.9338e-03 
39 4.4598e-04  
40 1.7477e-16  
41 -2.1790e-04 
42 -1.3007e-03 
43 9.3540e-17  
44 2.5099e-16  
45 -1.3566e-03 
46 1.7311e-03  
47 4.5381e-04  

Decomposition over AOs for the right alpha Dyson orbital:
-3.86701038e-03
1.51624563e-02
1.38514323e-03
-6.53681282e-15
-2.75283585e-01
-2.82637024e-01
-3.43696200e-15
-1.52592553e-01
-1.14614753e-01
5.31940050e-16
-2.20380445e-03
2.99510549e-02
-4.53049238e-17
9.91390986e-03
2.68984981e-02
-5.36636850e-02
-1.15268674e-01
-5.85254402e-15
-8.66722202e-02
3.47688537e-01
-4.47316375e-15
-7.60168657e-02
2.19897257e-01
1.45959519e-16
-1.77780946e-02
9.98637656e-03
-2.63278705e-16
-3.41997258e-04
-3.02701866e-01
-1.12689701e-01
-1.95239420e-16
1.55834768e-02
1.38502129e-03
-7.78156574e-02
-6.18259999e-02
-4.68872750e-16
-1.26721542e-02
1.58415996e-02
3.96764045e-02
1.12442202e-02
-2.90077149e-03
-5.71732591e-03
-6.91577426e-03
3.96764045e-02
1.12442202e-02
2.90077149e-03
-5.71732591e-03
-6.91577426e-03
   *****

     End transition

 ------------------------------------------------------------------------------
 State A: ccsd: 0/A
 State B: eomip_ccsd/a: 4/A

       ***    Dyson orbital calculation   *** 

 Reference -- EOM-IP-CCSD state  4/A   transition
 Energy difference = -15.5130 eV.

 Left Dyson orbital norm is 0.9599

Left alpha Dyson orbital in the MO basis (canonical Q-Chem's ordering):
0  2.5153e-16  
1  7.1124e-17  
2  1.2906e-15  
3  -1.6653e-15 
4  -1.4634e-14 
5  -9.8689e-01 
6  8.6337e-14  
7  9.7942e-15  
8  -1.5955e-01 
9  -4.8780e-15 
10 2.9213e-15  
11 1.7456e-03  
12 -4.7705e-15 
13 2.1099e-15  
14 -1.3531e-15 
15 1.8372e-02  
16 4.9093e-16  
17 -7.7542e-16 
18 -4.8707e-04 
19 -2.1337e-16 
20 5.1998e-16  
21 -5.0741e-16 
22 1.1232e-02  
23 -2.7756e-16 
24 2.2942e-16  
25 6.7112e-03  
26 2.5587e-16  
27 1.4242e-03  
28 5.0166e-04  
29 -1.4828e-15 
30 3.9134e-03  
31 -8.6910e-16 
32 1.3769e-16  
33 7.7754e-03  
34 1.8431e-17  
35 -3.1941e-16 
36 -1.7120e-16 
37 -1.5477e-04 
38 -3.1290e-16 
39 -2.7105e-16 
40 -2.0001e-03 
41 9.1604e-16  
42 -1.2030e-15 
43 7.4677e-06  
44 4.3247e-04  
45 5.4568e-16  
46 4.6230e-16  
47 5.8764e-17  

Decomposition over AOs for the left alpha Dyson orbital:
-7.30443576e-16
1.67700777e-17
5.18647166e-15
3.95595134e-01
-5.05716249e-15
-3.58574181e-15
1.77073610e-01
-6.70114782e-15
-4.28452842e-15
-1.61041248e-02
2.59804514e-16
3.31257635e-16
-7.05641340e-03
4.37753354e-16
2.11408664e-15
-3.18615096e-15
-1.13492948e-14
2.42196969e-01
-9.90402607e-15
5.06004725e-15
1.74608548e-01
-6.28827250e-15
2.47725404e-15
-6.97340146e-03
-4.87069556e-16
-6.96329936e-17
1.30317375e-02
-2.59664282e-16
-4.15252266e-15
3.00676262e-15
1.26193591e-02
9.13412283e-17
-4.26105068e-17
4.54635168e-15
-1.18141571e-15
1.38356226e-02
1.43341408e-16
6.84866351e-16
2.62626235e-01
1.09807459e-01
-7.11518403e-03
1.02359805e-02
-5.94363836e-03
-2.62626235e-01
-1.09807459e-01
-7.11518403e-03
-1.02359805e-02
5.94363836e-03
   *****

 Right Dyson orbital norm is 0.9517

Right alpha Dyson orbital in the MO basis (canonical Q-Chem's ordering):
0  2.5479e-16  
1  6.7654e-17  
2  1.2559e-15  
3  -1.7208e-15 
4  -1.7559e-14 
5  -9.8782e-01 
6  8.7035e-14  
7  7.7750e-15  
8  -1.5424e-01 
9  -4.7184e-15 
10 2.8831e-15  
11 2.9587e-03  
12 -5.7974e-15 
13 2.1289e-15  
14 -1.1137e-15 
15 1.5308e-02  
16 4.6968e-16  
17 -6.8500e-16 
18 9.1874e-04  
19 -1.7000e-16 
20 5.8027e-16  
21 -4.5970e-16 
22 8.9335e-03  
23 -7.9797e-17 
24 1.6350e-16  
25 4.9653e-03  
26 2.5240e-16  
27 1.4360e-03  
28 4.6106e-04  
29 -1.3431e-15 
30 3.6740e-03  
31 -7.8930e-16 
32 9.4976e-17  
33 7.0156e-03  
34 1.4311e-17  
35 -2.9989e-16 
36 -1.5461e-16 
37 -2.9189e-04 
38 -2.8655e-16 
39 -2.7625e-16 
40 -1.4563e-03 
41 1.0090e-15  
42 -1.0905e-15 
43 4.9466e-05  
44 4.4640e-04  
45 5.6135e-16  
46 4.5489e-16  
47 7.1991e-17  

Decomposition over AOs for the right alpha Dyson orbital:
-6.74795583e-16
-4.64456343e-17
5.01686720e-15
3.92851716e-01
-3.66905642e-15
-4.05725195e-15
1.74201240e-01
-5.99381515e-15
-4.42300338e-15
-1.60957349e-02
2.23007501e-16
4.07092163e-16
-6.78539041e-03
3.98678752e-16
2.07302834e-15
-3.15834498e-15
-1.10962908e-14
2.48647276e-01
-9.57497184e-15
5.76727912e-15
1.75097163e-01
-6.10885413e-15
2.79016593e-15
-6.97733634e-03
-4.65064954e-16
-3.34794349e-17
1.30176948e-02
-2.55409678e-16
-3.30851933e-15
3.37164788e-15
1.24501243e-02
5.96852028e-17
-7.84911415e-17
4.08605588e-15
-1.33307344e-15
1.33601747e-02
1.14635391e-16
6.49928229e-16
2.64405729e-01
1.09677641e-01
-7.57285414e-03
1.03982640e-02
-5.91415697e-03
-2.64405729e-01
-1.09677641e-01
-7.57285414e-03
-1.03982640e-02
5.91415697e-03
   *****

     End transition

 ------------------------------------------------------------------------------
 State A: ccsd: 0/A
 State B: eomip_ccsd/a: 5/A

       ***    Dyson orbital calculation   *** 

 Reference -- EOM-IP-CCSD state  5/A   transition
 Energy difference = -17.2383 eV.

 Left Dyson orbital norm is 0.9592

Left alpha Dyson orbital in the MO basis (canonical Q-Chem's ordering):
0  4.2110e-16  
1  -6.0889e-16 
2  2.5549e-02  
3  -3.0607e-02 
4  -9.9419e-01 
5  7.5582e-15  
6  -8.3428e-02 
7  -4.8415e-02 
8  5.5789e-15  
9  1.2323e-02  
10 6.3185e-03  
11 -4.2969e-15 
12 -1.4246e-03 
13 1.5336e-02  
14 7.8877e-03  
15 1.1302e-15  
16 -4.1109e-03 
17 4.9942e-03  
18 1.2143e-16  
19 -1.2687e-03 
20 4.6529e-03  
21 7.9097e-03  
22 -8.4064e-16 
23 1.3829e-03  
24 1.3059e-03  
25 5.1131e-16  
26 -2.4278e-03 
27 -5.3092e-16 
28 -5.1781e-15 
29 -1.8093e-03 
30 8.5001e-17  
31 4.4641e-03  
32 1.5025e-03  
33 -6.5312e-16 
34 -3.1939e-03 
35 -4.7932e-04 
36 3.4226e-03  
37 -2.4346e-16 
38 1.1707e-03  
39 2.8520e-03  
40 -4.8139e-17 
41 -6.8134e-04 
42 4.0057e-04  
43 2.0673e-16  
44 -1.1563e-16 
45 -4.3443e-05 
46 6.8313e-04  
47 1.8278e-03  

Decomposition over AOs for the left alpha Dyson orbital:
2.05010699e-02
-3.86795955e-02
-3.20918144e-02
6.34333909e-15
2.08631053e-01
-2.07684651e-01
4.32121530e-15
1.07986851e-01
-8.88981931e-02
-4.57175536e-16
-2.01423301e-02
2.56378543e-02
4.94879692e-16
-5.30890741e-03
-3.98473862e-02
8.69394013e-02
1.63710408e-01
1.41058772e-15
3.28375953e-01
2.20717530e-01
5.09972836e-16
1.73257734e-01
9.58574544e-02
-1.01772928e-16
2.59555149e-03
1.29794325e-02
1.21088752e-16
1.03138876e-02
5.11584145e-02
9.09362221e-03
1.65667883e-16
-1.13803827e-03
-4.50090432e-03
-2.95576308e-01
-9.12802382e-02
2.26811599e-16
-2.59533237e-02
-1.17649377e-02
-1.48024197e-01
-4.24517124e-02
1.11581711e-02
-4.31745597e-04
-8.21903721e-04
-1.48024197e-01
-4.24517124e-02
-1.11581711e-02
-4.31745597e-04
-8.21903721e-04
   *****

 Right Dyson orbital norm is 0.9493

Right alpha Dyson orbital in the MO basis (canonical Q-Chem's ordering):
0  3.9324e-16  
1  -6.0802e-16 
2  2.8316e-02  
3  -2.9923e-02 
4  -9.9453e-01 
5  4.9648e-15  
6  -8.0524e-02 
7  -4.7870e-02 
8  5.5268e-15  
9  1.0093e-02  
10 4.7232e-03  
11 -2.9525e-15 
12 9.5261e-05  
13 1.1636e-02  
14 6.1442e-03  
15 1.1120e-15  
16 -3.1820e-03 
17 5.0726e-03  
18 2.1879e-16  
19 -8.2832e-04 
20 3.4039e-03  
21 6.0620e-03  
22 -7.8811e-16 
23 1.3246e-03  
24 9.7583e-04  
25 5.0806e-16  
26 -1.6765e-03 
27 -5.3466e-16 
28 -3.9621e-15 
29 -1.4175e-03 
30 1.0408e-16  
31 4.0063e-03  
32 1.5118e-03  
33 -6.3317e-16 
34 -2.7754e-03 
35 -3.7807e-04 
36 3.0198e-03  
37 -2.6625e-16 
38 8.2287e-04  
39 2.5102e-03  
40 -3.3610e-17 
41 -5.0273e-04 
42 2.2080e-04  
43 2.0573e-16  
44 -1.1568e-16 
45 4.9539e-05  
46 5.0642e-04  
47 1.5358e-03  

Decomposition over AOs for the right alpha Dyson orbital:
2.03792912e-02
-3.81328632e-02
-3.50625965e-02
7.32428600e-15
2.08281995e-01
-2.05541484e-01
4.85823927e-15
1.05684695e-01
-8.52764972e-02
-4.93413827e-16
-1.96089017e-02
2.58201752e-02
4.57683949e-16
-5.53002995e-03
-4.05301207e-02
8.89669673e-02
1.66048675e-01
2.39417776e-15
3.31686294e-01
2.20820750e-01
1.17156878e-15
1.73639270e-01
9.81075252e-02
-1.29549277e-16
2.40635762e-03
1.33674417e-02
1.60313915e-16
1.05261879e-02
5.34865377e-02
1.06573044e-02
1.98500226e-16
-1.36825188e-03
-4.45070893e-03
-2.94883261e-01
-8.65082329e-02
2.81466938e-16
-2.70266193e-02
-1.21184101e-02
-1.49229086e-01
-4.28610009e-02
1.13048904e-02
-5.77488067e-04
-7.43302684e-04
-1.49229086e-01
-4.28610009e-02
-1.13048904e-02
-5.77488067e-04
-7.43302684e-04
   *****

     End transition


 All requested transition properties have been computed


 Transition Properties  CPU 0.06 s  wall 0.04 s
 Total ccman2 time:   CPU 5.28 s  wall 2.54 s


 --------------------------------------------------------------

                    Orbital Energies (a.u.)
 --------------------------------------------------------------

 Alpha MOs
 -- Occupied --
-20.5528 -11.2787  -1.3527  -0.9100  -0.6778  -0.6175  -0.5889  -0.4890
 -0.4388
 -- Virtual --
  0.1799   0.2212   0.2640   0.2682   0.3651   0.6308   0.6477   0.7317
  0.7902   0.8542   0.8824   0.8866   1.1179   1.1476   1.1628   1.2664
  1.3269   1.4425   1.5869   1.6599   1.6606   1.8418   1.8895   1.9341
  1.9478   2.0275   2.1449   2.2673   2.3555   2.3638   2.4509   2.7171
  2.7241   2.7437   3.2952   3.3899   3.4545   3.5843   4.0500

 Beta MOs
 -- Occupied --
-20.5528 -11.2787  -1.3527  -0.9100  -0.6778  -0.6175  -0.5889  -0.4890
 -0.4388
 -- Virtual --
  0.1799   0.2212   0.2640   0.2682   0.3651   0.6308   0.6477   0.7317
  0.7902   0.8542   0.8824   0.8866   1.1179   1.1476   1.1628   1.2664
  1.3269   1.4425   1.5869   1.6599   1.6606   1.8418   1.8895   1.9341
  1.9478   2.0275   2.1449   2.2673   2.3555   2.3638   2.4509   2.7171
  2.7241   2.7437   3.2952   3.3899   3.4545   3.5843   4.0500
 --------------------------------------------------------------


                        ALPHA MOLECULAR ORBITAL COEFFICIENTS
                         1         2         3         4         5         6
 eigenvalues:        -20.553   -11.279    -1.353    -0.910    -0.678    -0.618
   1  C     s        0.00001   0.99751  -0.06961  -0.16529  -0.01843   0.00000
   2  C     s       -0.00003   0.01772   0.14000   0.35394   0.03464  -0.00000
   3  C     s       -0.00255  -0.00703   0.03836   0.22147   0.03749  -0.00000
   4  C     px      -0.00000   0.00000  -0.00000  -0.00000  -0.00000  -0.36255
   5  C     py      -0.00001  -0.00002   0.00058   0.01114  -0.21361   0.00000
   6  C     pz       0.00030  -0.00063  -0.10992   0.05481   0.17039   0.00000
   7  C     px       0.00000   0.00000   0.00000   0.00000  -0.00000  -0.15103
   8  C     py       0.00001   0.00009  -0.00565  -0.00541  -0.10146   0.00000
   9  C     pz       0.00107  -0.00048  -0.01485   0.03171   0.06436   0.00000
  10  C     d 1      0.00000  -0.00000   0.00000   0.00000   0.00000   0.01798
  11  C     d 2     -0.00007   0.00005   0.00188  -0.00275   0.01911  -0.00000
  12  C     d 3      0.00018   0.00003   0.03142  -0.00178  -0.02460  -0.00000
  13  C     d 4     -0.00000   0.00000  -0.00000  -0.00000   0.00000   0.00856
  14  C     d 5     -0.00002   0.00001  -0.00024  -0.00188   0.00732  -0.00000
  15  O     s       -0.99732  -0.00008  -0.19668   0.06026   0.03758  -0.00000
  16  O     s       -0.01566   0.00043   0.42140  -0.13968  -0.08556   0.00000
  17  O     s        0.00485  -0.00059   0.41911  -0.14782  -0.16982   0.00000
  18  O     px       0.00000  -0.00000   0.00000   0.00000  -0.00000  -0.34803
  19  O     py       0.00133  -0.00001  -0.05602   0.06239  -0.37346   0.00000
  20  O     pz      -0.00091   0.00025   0.05907   0.18119  -0.18566  -0.00000
  21  O     px      -0.00000   0.00000  -0.00000  -0.00000  -0.00000  -0.23734
  22  O     py      -0.00057   0.00038   0.00027   0.00872  -0.19644   0.00000
  23  O     pz       0.00149  -0.00061   0.03441   0.10211  -0.08330  -0.00000
  24  O     d 1     -0.00000   0.00000  -0.00000   0.00000   0.00000   0.00865
  25  O     d 2     -0.00006   0.00002  -0.00089  -0.00535  -0.00293   0.00000
  26  O     d 3      0.00019  -0.00022   0.00723   0.01361  -0.01416  -0.00000
  27  O     d 4      0.00000   0.00000  -0.00000   0.00000  -0.00000  -0.01379
  28  O     d 5     -0.00000   0.00011  -0.00321   0.00310  -0.01274   0.00000
  29  H 1   s        0.00031   0.00010   0.03609   0.19154  -0.06937   0.00000
  30  H 1   s        0.00015   0.00119   0.00536   0.03137  -0.01321   0.00000
  31  H 1   px      -0.00000   0.00000  -0.00000  -0.00000  -0.00000  -0.01109
  32  H 1   py      -0.00006   0.00026  -0.00590  -0.02348   0.00398  -0.00000
  33  H 1   pz      -0.00013   0.00015  -0.00506  -0.00721   0.00407   0.00000
  34  H 2   s       -0.00014   0.00037   0.15912  -0.14632   0.30382  -0.00000
  35  H 2   s       -0.00007   0.00020   0.00617  -0.02233   0.07436   0.00000
  36  H 2   px      -0.00000  -0.00000   0.00000   0.00000  -0.00000  -0.01580
  37  H 2   py       0.00057   0.00008   0.03190  -0.02296   0.03387   0.00000
  38  H 2   pz       0.00010   0.00030   0.01423  -0.00497   0.01645  -0.00000
  39  H 3   s        0.00033   0.00012   0.03749   0.18148   0.14044  -0.23857
  40  H 3   s        0.00014   0.00129   0.00348   0.02537   0.03546  -0.08808
  41  H 3   px      -0.00004   0.00021  -0.00675  -0.01949  -0.01246   0.01034
  42  H 3   py       0.00003  -0.00015   0.00382   0.01182   0.00127  -0.01115
  43  H 3   pz      -0.00012   0.00013  -0.00472  -0.00604  -0.00007   0.00572
  44  H 4   s        0.00033   0.00012   0.03749   0.18148   0.14044   0.23857
  45  H 4   s        0.00014   0.00129   0.00348   0.02537   0.03546   0.08808
  46  H 4   px       0.00004  -0.00021   0.00675   0.01949   0.01246   0.01034
  47  H 4   py       0.00003  -0.00015   0.00382   0.01182   0.00127   0.01115
  48  H 4   pz      -0.00012   0.00013  -0.00472  -0.00604  -0.00007  -0.00572
                         7         8         9        10        11        12
 eigenvalues:         -0.589    -0.489    -0.439     0.180     0.221     0.264
   1  C     s       -0.00039   0.00556   0.00000  -0.07890   0.09177  -0.00000
   2  C     s       -0.00635  -0.02080   0.00000   0.02108  -0.09590   0.00000
   3  C     s        0.01947   0.02339  -0.00000   1.59633  -1.54060   0.00000
   4  C     px       0.00000   0.00000  -0.23844  -0.00000   0.00000  -0.33471
   5  C     py       0.21255  -0.31841   0.00000  -0.05495  -0.07278  -0.00000
   6  C     pz       0.31247   0.08735  -0.00000   0.13928  -0.03071  -0.00000
   7  C     px       0.00000   0.00000  -0.08647  -0.00000   0.00000  -1.39758
   8  C     py       0.11749  -0.12515   0.00000  -0.18551  -0.32742  -0.00000
   9  C     pz       0.11465  -0.00101  -0.00000   0.28864  -0.28815  -0.00000
  10  C     d 1     -0.00000   0.00000   0.01703   0.00000  -0.00000   0.01992
  11  C     d 2      0.00222  -0.03203   0.00000   0.00230  -0.00048  -0.00000
  12  C     d 3     -0.03996  -0.01226   0.00000   0.00496   0.01805  -0.00000
  13  C     d 4     -0.00000  -0.00000  -0.03937  -0.00000   0.00000  -0.01505
  14  C     d 5     -0.00931   0.01853  -0.00000   0.00505   0.00788   0.00000
  15  O     s       -0.02826  -0.04212  -0.00000  -0.04803  -0.05260   0.00000
  16  O     s        0.06387   0.09436   0.00000   0.06128   0.05273  -0.00000
  17  O     s        0.12082   0.20225   0.00000   0.48987   0.60840  -0.00000
  18  O     px       0.00000   0.00000   0.53384   0.00000  -0.00000   0.05066
  19  O     py       0.12968   0.34903   0.00000  -0.13937  -0.14909   0.00000
  20  O     pz      -0.40059  -0.16682   0.00000  -0.05847   0.01404  -0.00000
  21  O     px       0.00000   0.00000   0.43541   0.00000  -0.00000   0.18288
  22  O     py       0.10245   0.24589  -0.00000  -0.25459  -0.27897   0.00000
  23  O     pz      -0.25687  -0.15177   0.00000  -0.19933  -0.03337  -0.00000
  24  O     d 1     -0.00000  -0.00000  -0.01091  -0.00000   0.00000  -0.00501
  25  O     d 2      0.01790   0.00033   0.00000   0.00030  -0.00230  -0.00000
  26  O     d 3     -0.01309  -0.00093   0.00000  -0.00262  -0.00970   0.00000
  27  O     d 4      0.00000   0.00000   0.00406  -0.00000   0.00000  -0.00813
  28  O     d 5      0.00164   0.01207  -0.00000  -0.00773  -0.00795   0.00000
  29  H 1   s        0.26297  -0.28064   0.00000  -0.01086   0.01579   0.00000
  30  H 1   s        0.08597  -0.13312  -0.00000  -0.43667   1.24549   0.00000
  31  H 1   px       0.00000   0.00000  -0.00856   0.00000  -0.00000  -0.00096
  32  H 1   py      -0.01839   0.01121  -0.00000   0.00374  -0.02062  -0.00000
  33  H 1   pz      -0.00104   0.01101   0.00000   0.01095   0.00147  -0.00000
  34  H 2   s        0.06165  -0.20422  -0.00000  -0.05028  -0.06507   0.00000
  35  H 2   s        0.05206  -0.06445   0.00000  -0.91123  -1.07185   0.00000
  36  H 2   px       0.00000   0.00000   0.02526   0.00000  -0.00000   0.01024
  37  H 2   py       0.01243  -0.01273  -0.00000  -0.01533  -0.02217   0.00000
  38  H 2   pz      -0.01569  -0.01656  -0.00000  -0.00486   0.00216   0.00000
  39  H 3   s        0.00098   0.17034  -0.23195  -0.01657  -0.00120   0.00766
  40  H 3   s        0.00594   0.09716  -0.13193  -0.79716   0.59404   1.81581
  41  H 3   px       0.00022  -0.01268   0.00695   0.00998  -0.00664  -0.01934
  42  H 3   py       0.00502  -0.00419  -0.00799  -0.00281   0.00870   0.00946
  43  H 3   pz       0.00651  -0.00141   0.00490   0.01085   0.00535  -0.01223
  44  H 4   s        0.00098   0.17034   0.23195  -0.01657  -0.00120  -0.00766
  45  H 4   s        0.00594   0.09716   0.13193  -0.79716   0.59404  -1.81581
  46  H 4   px      -0.00022   0.01268   0.00695  -0.00998   0.00664  -0.01934
  47  H 4   py       0.00502  -0.00419   0.00799  -0.00281   0.00870  -0.00946
  48  H 4   pz       0.00651  -0.00141  -0.00490   0.01085   0.00535   0.01223
                        13        14        15        16        17        18
 eigenvalues:          0.268     0.365     0.631     0.648     0.732     0.790
   1  C     s       -0.01593  -0.04843   0.00184  -0.00000   0.02540   0.01279
   2  C     s        0.01277   0.02538   0.00675   0.00000  -0.44824  -0.06336
   3  C     s        0.23880   0.82251  -0.04660  -0.00000   0.33681  -0.07446
   4  C     px       0.00000   0.00000   0.00000  -0.24472  -0.00000  -0.00000
   5  C     py      -0.30936   0.02141  -0.23742  -0.00000   0.14144  -0.50324
   6  C     pz      -0.03861  -0.17792   0.02337  -0.00000   0.84112   0.43316
   7  C     px       0.00000  -0.00000  -0.00000   1.38063   0.00000   0.00000
   8  C     py      -1.33973   0.24769   1.21409   0.00000  -0.50477   1.22993
   9  C     pz      -0.20271  -1.64938   0.14388   0.00000  -1.13547  -0.45709
  10  C     d 1     -0.00000   0.00000  -0.00000   0.15688   0.00000  -0.00000
  11  C     d 2     -0.01103   0.00318  -0.09006  -0.00000  -0.06397   0.18505
  12  C     d 3     -0.00349  -0.00194   0.01375   0.00000   0.11842   0.16331
  13  C     d 4      0.00000   0.00000   0.00000  -0.03480  -0.00000   0.00000
  14  C     d 5      0.01227   0.00340   0.15394   0.00000  -0.00116  -0.07259
  15  O     s        0.02188   0.06172   0.01145   0.00000  -0.00313  -0.02345
  16  O     s       -0.01623  -0.03893  -0.05519  -0.00000   0.13187   0.18057
  17  O     s       -0.29049  -0.94934  -0.01739   0.00000  -0.54661  -0.43301
  18  O     px      -0.00000   0.00000   0.00000  -0.16315  -0.00000   0.00000
  19  O     py       0.09256  -0.07298  -0.04007  -0.00000   0.08375  -0.23140
  20  O     pz      -0.03063  -0.26947   0.09425   0.00000   0.27115   0.15315
  21  O     px      -0.00000   0.00000   0.00000  -0.24728  -0.00000  -0.00000
  22  O     py       0.26117  -0.18342  -0.21811  -0.00000   0.25254  -0.18825
  23  O     pz      -0.04791  -0.81852   0.04515   0.00000   0.05662  -0.15351
  24  O     d 1      0.00000  -0.00000  -0.00000   0.00996  -0.00000  -0.00000
  25  O     d 2     -0.00966   0.00508   0.01879   0.00000   0.02312  -0.05690
  26  O     d 3      0.00138  -0.01328  -0.00934   0.00000  -0.08290  -0.02464
  27  O     d 4      0.00000   0.00000  -0.00000   0.00826   0.00000  -0.00000
  28  O     d 5      0.00247  -0.00001  -0.01047  -0.00000  -0.02496   0.05794
  29  H 1   s        0.04261   0.06856  -0.80453  -0.00000   0.08810   0.07787
  30  H 1   s        1.93800  -0.09930   0.10716   0.00000   0.39205  -0.86988
  31  H 1   px       0.00000   0.00000  -0.00000   0.07199   0.00000  -0.00000
  32  H 1   py      -0.01961   0.00603  -0.03784  -0.00000  -0.06054   0.07477
  33  H 1   pz      -0.01614  -0.00170  -0.00633   0.00000  -0.00297   0.11127
  34  H 2   s        0.00103  -0.00229   0.14112   0.00000   0.60313  -0.81265
  35  H 2   s        0.27878  -0.83352   0.16349   0.00000  -0.61503   0.65559
  36  H 2   px      -0.00000  -0.00000   0.00000  -0.00898  -0.00000   0.00000
  37  H 2   py       0.01139  -0.00222  -0.02767  -0.00000  -0.08498   0.15828
  38  H 2   pz       0.00558  -0.00160  -0.07563  -0.00000   0.08098   0.11605
  39  H 3   s       -0.01780   0.11165   0.38951  -0.69428   0.07767  -0.06685
  40  H 3   s       -1.08609   0.24388  -0.08573  -0.05274  -0.06516   0.54326
  41  H 3   px       0.00992   0.00543   0.03595   0.00491  -0.01032  -0.09622
  42  H 3   py      -0.00848   0.00213   0.04300   0.04240   0.00431   0.04255
  43  H 3   pz       0.00479  -0.00753   0.01044  -0.00571   0.06427  -0.02988
  44  H 4   s       -0.01780   0.11165   0.38951   0.69428   0.07767  -0.06685
  45  H 4   s       -1.08609   0.24388  -0.08573   0.05274  -0.06516   0.54326
  46  H 4   px      -0.00992  -0.00543  -0.03595   0.00491   0.01032   0.09622
  47  H 4   py      -0.00848   0.00213   0.04300  -0.04240   0.00431   0.04255
  48  H 4   pz       0.00479  -0.00753   0.01044   0.00571   0.06427  -0.02988
                        19        20        21        22        23        24
 eigenvalues:          0.854     0.882     0.887     1.118     1.148     1.163
   1  C     s       -0.00000  -0.08281  -0.01047  -0.02766   0.00000   0.10215
   2  C     s        0.00000   0.66373   0.22687  -0.47983   0.00000   1.52332
   3  C     s       -0.00000  -0.72287  -0.40703   1.60881  -0.00000  -4.27435
   4  C     px      -0.87002   0.00000  -0.00000  -0.00000  -0.02966   0.00000
   5  C     py      -0.00000  -0.11276   0.69191  -0.06753  -0.00000  -0.06899
   6  C     pz      -0.00000   0.11376   0.16732  -0.21566   0.00000   0.22994
   7  C     px       1.85272  -0.00000   0.00000   0.00000   0.12220  -0.00000
   8  C     py       0.00000   0.18121  -1.39497   0.10181   0.00000   0.12567
   9  C     pz       0.00000  -0.38310  -0.29108   0.14192  -0.00000  -0.30539
  10  C     d 1     -0.25068  -0.00000  -0.00000  -0.00000  -0.27120   0.00000
  11  C     d 2     -0.00000  -0.00462  -0.10811  -0.21423  -0.00000  -0.23544
  12  C     d 3     -0.00000   0.12216   0.07894   0.07443  -0.00000  -0.03114
  13  C     d 4      0.21224  -0.00000   0.00000  -0.00000  -0.31236   0.00000
  14  C     d 5     -0.00000  -0.07759   0.23944  -0.24076  -0.00000  -0.10910
  15  O     s        0.00000   0.03561  -0.01183   0.03809  -0.00000  -0.03689
  16  O     s       -0.00000  -0.18335   0.11989  -0.06428   0.00000   0.25071
  17  O     s        0.00000  -0.07418  -0.25699  -0.63782   0.00000   0.33975
  18  O     px       0.02221   0.00000  -0.00000  -0.00000  -0.59351   0.00000
  19  O     py       0.00000   0.05374  -0.27641  -0.54111   0.00000  -0.01489
  20  O     pz      -0.00000  -0.13150  -0.03639   0.13817   0.00000   0.04487
  21  O     px      -0.14753   0.00000  -0.00000   0.00000   0.47738  -0.00000
  22  O     py      -0.00000   0.02786   0.15625   0.82480  -0.00000  -0.09741
  23  O     pz       0.00000  -0.17779  -0.08403  -0.29272   0.00000   0.52138
  24  O     d 1      0.00361  -0.00000   0.00000   0.00000  -0.01564   0.00000
  25  O     d 2      0.00000   0.01517  -0.02259   0.00546   0.00000   0.03011
  26  O     d 3      0.00000  -0.00410   0.01307   0.00697   0.00000   0.04104
  27  O     d 4     -0.02780   0.00000  -0.00000   0.00000   0.02657  -0.00000
  28  O     d 5     -0.00000  -0.02325   0.05481   0.00795  -0.00000   0.00030
  29  H 1   s        0.00000  -0.54388  -0.38713  -0.15243   0.00000   0.52347
  30  H 1   s       -0.00000   0.32540   1.56962  -0.44290   0.00000   0.66325
  31  H 1   px      -0.05935   0.00000  -0.00000  -0.00000  -0.21433   0.00000
  32  H 1   py      -0.00000  -0.13317  -0.25441   0.13908  -0.00000  -0.01537
  33  H 1   pz      -0.00000  -0.03610  -0.10493  -0.20576  -0.00000  -0.14626
  34  H 2   s        0.00000   0.33077  -0.59822   0.30421  -0.00000  -0.02309
  35  H 2   s       -0.00000  -0.48974   0.41747   0.20522   0.00000   0.26659
  36  H 2   px       0.01986   0.00000  -0.00000  -0.00000   0.02977  -0.00000
  37  H 2   py      -0.00000  -0.07274   0.18931   0.25738  -0.00000   0.10973
  38  H 2   pz      -0.00000  -0.01326   0.06708   0.05864  -0.00000  -0.23903
  39  H 3   s        0.26389  -0.65365   0.01406  -0.08514  -0.05694   0.46663
  40  H 3   s       -1.49640   0.74094  -0.51706  -0.25818  -0.09083   0.75034
  41  H 3   px       0.17352  -0.18025   0.06213  -0.08809   0.02347  -0.11237
  42  H 3   py      -0.13201   0.08364   0.02051  -0.12968  -0.13157  -0.04083
  43  H 3   pz       0.09953  -0.02191   0.03005   0.14204  -0.25695  -0.01252
  44  H 4   s       -0.26389  -0.65365   0.01406  -0.08514   0.05694   0.46663
  45  H 4   s        1.49640   0.74094  -0.51706  -0.25818   0.09083   0.75034
  46  H 4   px       0.17352   0.18025  -0.06213   0.08809   0.02347   0.11237
  47  H 4   py       0.13201   0.08364   0.02051  -0.12968   0.13157  -0.04083
  48  H 4   pz      -0.09953  -0.02191   0.03005   0.14204   0.25695  -0.01252
                        25        26        27        28        29        30
 eigenvalues:          1.266     1.327     1.443     1.587     1.660     1.661
   1  C     s       -0.02370  -0.00000  -0.05199   0.00000   0.00000   0.01899
   2  C     s       -0.33962  -0.00000  -0.82361   0.00000   0.00000   0.35178
   3  C     s       -0.35891   0.00000   2.04207  -0.00000  -0.00000  -0.37810
   4  C     px      -0.00000   0.09625  -0.00000  -0.00932   0.01223  -0.00000
   5  C     py      -0.12596   0.00000   0.07639  -0.00000   0.00000   0.00269
   6  C     pz       0.23584  -0.00000   0.15859   0.00000  -0.00000  -0.15242
   7  C     px       0.00000  -0.62690   0.00000  -0.50355  -0.04715   0.00000
   8  C     py       0.31547   0.00000   0.29783   0.00000   0.00000   0.27425
   9  C     pz       0.88823  -0.00000  -0.31479   0.00000  -0.00000  -0.22142
  10  C     d 1     -0.00000   0.07431  -0.00000   0.21647   0.00816  -0.00000
  11  C     d 2     -0.04436  -0.00000  -0.50411   0.00000   0.00000   0.01831
  12  C     d 3     -0.43155   0.00000   0.02581  -0.00000   0.00000   0.13383
  13  C     d 4     -0.00000   0.48646   0.00000   0.07873  -0.01327   0.00000
  14  C     d 5     -0.04570  -0.00000  -0.03277  -0.00000  -0.00000  -0.14023
  15  O     s       -0.04339   0.00000  -0.01807  -0.00000  -0.00000  -0.00044
  16  O     s        0.25435  -0.00000   0.05827  -0.00000  -0.00000  -0.06441
  17  O     s        0.22500   0.00000  -0.01607   0.00000   0.00000   0.17107
  18  O     px      -0.00000  -0.68219   0.00000  -0.26294   0.01336  -0.00000
  19  O     py      -0.00493   0.00000   0.43297  -0.00000   0.00000   0.24128
  20  O     pz      -0.71766   0.00000   0.09521   0.00000  -0.00000  -0.03181
  21  O     px       0.00000   0.96647  -0.00000   0.83097  -0.05520   0.00000
  22  O     py       0.15175  -0.00000  -1.48462   0.00000  -0.00000  -0.61262
  23  O     pz       1.63080  -0.00000  -0.48375   0.00000  -0.00000  -0.55388
  24  O     d 1      0.00000  -0.01483   0.00000   0.15399  -0.01960   0.00000
  25  O     d 2     -0.00008  -0.00000   0.08347  -0.00000  -0.00000  -0.08612
  26  O     d 3     -0.01643  -0.00000  -0.00574   0.00000   0.00000   0.00804
  27  O     d 4      0.00000  -0.08494  -0.00000   0.00852  -0.00411   0.00000
  28  O     d 5      0.02057  -0.00000   0.07224  -0.00000  -0.00000  -0.01077
  29  H 1   s       -0.19023  -0.00000  -0.19240  -0.00000  -0.00000  -0.03909
  30  H 1   s       -0.28029  -0.00000  -0.25154  -0.00000   0.00000   0.01752
  31  H 1   px      -0.00000   0.08770   0.00000  -0.14339  -0.55345   0.00000
  32  H 1   py       0.07286   0.00000   0.03266   0.00000   0.00000   0.21801
  33  H 1   pz      -0.13927  -0.00000  -0.09275  -0.00000  -0.00000  -0.40738
  34  H 2   s       -0.00880  -0.00000  -0.82649   0.00000  -0.00000  -0.41840
  35  H 2   s        0.82677  -0.00000  -0.38118   0.00000  -0.00000  -0.10576
  36  H 2   px       0.00000   0.28383  -0.00000  -0.94231   0.10748  -0.00000
  37  H 2   py       0.18091  -0.00000  -0.09443   0.00000  -0.00000  -0.36030
  38  H 2   pz       0.11074   0.00000  -0.42423   0.00000   0.00000   0.56041
  39  H 3   s       -0.07569   0.01654  -0.29634   0.17115   0.02790   0.18218
  40  H 3   s       -0.09527   0.21387  -0.17209   0.18200   0.00641   0.12105
  41  H 3   px      -0.01550  -0.03915  -0.04372  -0.00963   0.32628  -0.02675
  42  H 3   py       0.00093   0.06342  -0.11588   0.03113   0.52343   0.17543
  43  H 3   pz      -0.02456   0.13578   0.00640   0.09803  -0.01632   0.33694
  44  H 4   s       -0.07569  -0.01654  -0.29634  -0.17115  -0.02790   0.18218
  45  H 4   s       -0.09527  -0.21387  -0.17209  -0.18200  -0.00641   0.12105
  46  H 4   px       0.01550  -0.03915   0.04372  -0.00963   0.32628   0.02675
  47  H 4   py       0.00093  -0.06342  -0.11588  -0.03113  -0.52343   0.17543
  48  H 4   pz      -0.02456  -0.13578   0.00640  -0.09803   0.01632   0.33694
                        31        32        33        34        35        36
 eigenvalues:          1.842     1.890     1.934     1.948     2.027     2.145
   1  C     s       -0.00000   0.00509   0.02285  -0.00000  -0.04599   0.01129
   2  C     s       -0.00000  -0.05863  -0.06583  -0.00000  -0.33768  -0.05062
   3  C     s        0.00000  -0.07286  -0.44220   0.00000   1.73511  -0.97640
   4  C     px       0.07722  -0.00000   0.00000   0.16114  -0.00000   0.00000
   5  C     py      -0.00000   0.11050  -0.07983   0.00000  -0.07459  -0.06993
   6  C     pz       0.00000   0.08546   0.19298  -0.00000  -0.17349   0.24092
   7  C     px      -1.20945   0.00000   0.00000  -0.22887   0.00000   0.00000
   8  C     py      -0.00000  -1.20834   0.25128  -0.00000  -0.50250  -0.67661
   9  C     pz       0.00000   0.29678   1.12399  -0.00000  -0.55193  -0.06199
  10  C     d 1      0.36715  -0.00000   0.00000   0.53458  -0.00000   0.00000
  11  C     d 2     -0.00000  -0.23276   0.35987  -0.00000   0.34200   0.52011
  12  C     d 3     -0.00000  -0.25629  -0.66994   0.00000   0.65733  -0.35347
  13  C     d 4      0.12231   0.00000  -0.00000  -0.71519   0.00000   0.00000
  14  C     d 5      0.00000   0.56958  -0.26728   0.00000  -0.21550   0.02687
  15  O     s        0.00000  -0.01081  -0.04536   0.00000   0.03703  -0.01360
  16  O     s        0.00000  -0.09323  -0.23539   0.00000   1.08679  -0.72649
  17  O     s       -0.00000   0.43369   1.42136  -0.00000  -2.56115   1.29816
  18  O     px      -0.08429   0.00000  -0.00000  -0.17319   0.00000   0.00000
  19  O     py      -0.00000  -0.19798   0.00245   0.00000   0.13863  -0.00205
  20  O     pz       0.00000   0.20462   0.48955  -0.00000  -0.04340  -0.08280
  21  O     px       0.41617  -0.00000  -0.00000  -0.04992  -0.00000  -0.00000
  22  O     py       0.00000   0.47221  -0.17334   0.00000   0.58937   0.10700
  23  O     pz      -0.00000   0.07187   0.10251  -0.00000  -0.44668   0.91668
  24  O     d 1      0.02985  -0.00000  -0.00000  -0.01227  -0.00000   0.00000
  25  O     d 2      0.00000   0.01792  -0.06291   0.00000  -0.01603  -0.01962
  26  O     d 3     -0.00000  -0.00980  -0.03479   0.00000   0.09325  -0.06562
  27  O     d 4     -0.08204  -0.00000   0.00000   0.15109  -0.00000  -0.00000
  28  O     d 5     -0.00000   0.02448  -0.01728  -0.00000  -0.11838   0.08381
  29  H 1   s        0.00000   0.66707  -0.51014   0.00000  -0.14642   0.10049
  30  H 1   s       -0.00000   0.18729   0.02820   0.00000   0.15809   0.54470
  31  H 1   px       0.52546  -0.00000  -0.00000  -0.08555   0.00000  -0.00000
  32  H 1   py       0.00000   0.41007  -0.07808   0.00000   0.10831  -0.07549
  33  H 1   pz      -0.00000  -0.23419  -0.55399   0.00000  -0.44839  -0.10807
  34  H 2   s        0.00000   0.15504  -0.20056   0.00000   0.60699  -0.07818
  35  H 2   s       -0.00000  -0.11185   0.09503  -0.00000   0.04757  -0.03778
  36  H 2   px      -0.04578  -0.00000   0.00000   0.25346  -0.00000   0.00000
  37  H 2   py       0.00000   0.03621  -0.10079   0.00000   0.39888   0.21979
  38  H 2   pz      -0.00000  -0.12304  -0.00072  -0.00000  -0.20270  -0.64658
  39  H 3   s        0.45868  -0.45054  -0.01148   0.49005  -0.05805   0.04621
  40  H 3   s        0.30515  -0.09168  -0.05524  -0.20993  -0.30551  -0.11225
  41  H 3   px       0.41479  -0.01675   0.05351   0.08866   0.20965   0.00207
  42  H 3   py       0.00199   0.36633  -0.03256  -0.14213   0.26254   0.14724
  43  H 3   pz      -0.43217  -0.07432  -0.28400   0.43544  -0.04878   0.56248
  44  H 4   s       -0.45868  -0.45054  -0.01148  -0.49005  -0.05805   0.04621
  45  H 4   s       -0.30515  -0.09168  -0.05524   0.20993  -0.30551  -0.11225
  46  H 4   px       0.41479   0.01675  -0.05351   0.08866  -0.20965  -0.00207
  47  H 4   py      -0.00199   0.36633  -0.03256   0.14213   0.26254   0.14724
  48  H 4   pz       0.43217  -0.07432  -0.28400  -0.43544  -0.04878   0.56248
                        37        38        39        40        41        42
 eigenvalues:          2.267     2.356     2.364     2.451     2.717     2.724
   1  C     s        0.00458   0.00000   0.01606   0.00458   0.00000  -0.05013
   2  C     s       -0.10252   0.00000   0.41920   0.05562  -0.00000   1.05609
   3  C     s        0.26551  -0.00000  -0.93708  -0.13775  -0.00000   1.85823
   4  C     px      -0.00000  -0.14243   0.00000  -0.00000  -1.29883  -0.00000
   5  C     py       0.03257  -0.00000  -0.02300   0.29197  -0.00000   0.24185
   6  C     pz      -0.28351   0.00000   0.35748  -0.10520  -0.00000   0.58210
   7  C     px      -0.00000  -0.66441   0.00000  -0.00000  -1.07809  -0.00000
   8  C     py      -0.06249  -0.00000  -0.22037   0.55345  -0.00000   0.26448
   9  C     pz      -0.47222   0.00000   0.72246   0.11672  -0.00000   0.25023
  10  C     d 1     -0.00000  -0.85912   0.00000  -0.00000   1.11893   0.00000
  11  C     d 2     -0.28562  -0.00000  -0.28353   0.49321  -0.00000   0.24347
  12  C     d 3     -0.54081   0.00000   0.27481   0.12301   0.00000  -0.72890
  13  C     d 4     -0.00000  -0.56101   0.00000  -0.00000  -0.65877  -0.00000
  14  C     d 5     -0.52058  -0.00000  -0.47924   0.46261   0.00000  -0.12414
  15  O     s        0.01484  -0.00000   0.00088   0.03278   0.00000  -0.00049
  16  O     s        0.41137  -0.00000  -1.22774  -0.18992  -0.00000   0.44493
  17  O     s       -1.07433   0.00000   1.62352  -0.66455   0.00000  -0.47103
  18  O     px      -0.00000  -0.14023   0.00000  -0.00000  -0.04412  -0.00000
  19  O     py       0.28457  -0.00000   0.22060   0.57596   0.00000  -0.03031
  20  O     pz       0.37719  -0.00000  -0.14577   0.15240  -0.00000   0.21559
  21  O     px       0.00000   0.22808  -0.00000   0.00000   0.06557   0.00000
  22  O     py      -0.00932  -0.00000  -0.11647   0.19193   0.00000   0.02464
  23  O     pz      -0.41599   0.00000   0.60889   0.07117   0.00000  -0.19196
  24  O     d 1     -0.00000  -0.09202   0.00000  -0.00000   0.10989   0.00000
  25  O     d 2      0.10714   0.00000   0.09756  -0.04668   0.00000  -0.03378
  26  O     d 3      0.04776  -0.00000  -0.05853  -0.02469  -0.00000   0.05783
  27  O     d 4      0.00000   0.14607  -0.00000   0.00000   0.10891   0.00000
  28  O     d 5     -0.08692   0.00000  -0.00049  -0.12390   0.00000  -0.05146
  29  H 1   s       -0.13203   0.00000  -0.02201  -0.17154   0.00000  -1.05572
  30  H 1   s        0.12357   0.00000   0.09835  -0.37076   0.00000  -0.55784
  31  H 1   px       0.00000   0.91958  -0.00000   0.00000   0.00349  -0.00000
  32  H 1   py      -0.28778   0.00000   0.25490   0.33426  -0.00000   1.02065
  33  H 1   pz       0.58185  -0.00000  -0.02694  -0.17509  -0.00000   0.49385
  34  H 2   s        0.16628  -0.00000  -0.11657   0.49964   0.00000   0.01374
  35  H 2   s        0.08613   0.00000   0.21836   0.36989  -0.00000   0.06416
  36  H 2   px      -0.00000  -0.13819   0.00000  -0.00000   0.13153   0.00000
  37  H 2   py       0.51339   0.00000   0.43922   0.92151   0.00000  -0.03001
  38  H 2   pz       0.29496  -0.00000   0.14334   0.34451   0.00000  -0.01281
  39  H 3   s        0.00946   0.01812   0.08589   0.14656   1.19878  -0.64741
  40  H 3   s        0.05157   0.33171  -0.13244   0.17047   0.63553  -0.29529
  41  H 3   px      -0.02069   0.08581   0.46867  -0.43086  -0.93132   0.56294
  42  H 3   py       0.45099   0.47048   0.18802  -0.34271   0.52158  -0.38695
  43  H 3   pz       0.19334   0.30816  -0.31650   0.01452  -0.39708   0.32286
  44  H 4   s        0.00946  -0.01812   0.08589   0.14656  -1.19878  -0.64741
  45  H 4   s        0.05157  -0.33171  -0.13244   0.17047  -0.63553  -0.29529
  46  H 4   px       0.02069   0.08581  -0.46867   0.43086  -0.93132  -0.56294
  47  H 4   py       0.45099  -0.47048   0.18802  -0.34271  -0.52158  -0.38695
  48  H 4   pz       0.19334  -0.30816  -0.31650   0.01452   0.39708   0.32286
                        43        44        45        46        47        48
 eigenvalues:          2.744     3.295     3.390     3.454     3.584     4.050
   1  C     s        0.01117   0.00000   0.00000   0.01493  -0.04061  -0.01185
   2  C     s       -0.25697   0.00000   0.00000  -0.24201   0.20357   0.03409
   3  C     s       -0.48602  -0.00000  -0.00000  -0.52579   0.79539   0.04934
   4  C     px      -0.00000  -0.14137  -0.16684   0.00000   0.00000  -0.00000
   5  C     py       1.24317  -0.00000   0.00000  -0.16025   0.01733  -0.02816
   6  C     pz       0.02978  -0.00000  -0.00000   0.35528  -0.50078  -0.10917
   7  C     px      -0.00000  -0.26392   0.07332   0.00000   0.00000  -0.00000
   8  C     py       0.93283   0.00000   0.00000  -0.09593  -0.06925   0.03602
   9  C     pz       0.05935   0.00000  -0.00000   0.18484  -0.50182  -0.17608
  10  C     d 1      0.00000   0.33028   0.13568  -0.00000  -0.00000   0.00000
  11  C     d 2      0.67811  -0.00000   0.00000  -0.52913  -0.37854   0.02493
  12  C     d 3      0.15403  -0.00000   0.00000  -0.31504   0.45201   0.16173
  13  C     d 4     -0.00000   0.20100  -0.70471  -0.00000   0.00000  -0.00000
  14  C     d 5     -1.16593  -0.00000  -0.00000   0.13646  -0.05818   0.13117
  15  O     s       -0.01419  -0.00000   0.00000  -0.03372   0.04122  -0.03696
  16  O     s       -0.11124  -0.00000   0.00000  -0.43935   0.45932  -0.08863
  17  O     s        0.49721   0.00000  -0.00000   1.20826  -1.46160   1.12972
  18  O     px      -0.00000  -0.04259   0.01530   0.00000   0.00000   0.00000
  19  O     py      -0.12396  -0.00000   0.00000  -0.03154   0.08776  -0.30877
  20  O     pz      -0.11739  -0.00000  -0.00000  -0.05294  -0.00791  -0.12523
  21  O     px       0.00000   0.33000  -0.18235  -0.00000  -0.00000  -0.00000
  22  O     py      -0.20079  -0.00000   0.00000  -0.48412   0.00050  -0.96212
  23  O     pz       0.19822   0.00000  -0.00000   0.56360  -0.65083  -0.51045
  24  O     d 1      0.00000  -1.00817  -0.21702   0.00000   0.00000  -0.00000
  25  O     d 2     -0.07723  -0.00000  -0.00000  -0.72915  -0.52668   0.67309
  26  O     d 3     -0.01309  -0.00000  -0.00000   0.32344  -0.97349  -0.51627
  27  O     d 4      0.00000   0.19595  -1.00672  -0.00000   0.00000  -0.00000
  28  O     d 5     -0.06839  -0.00000   0.00000  -0.67304   0.10472  -0.93524
  29  H 1   s       -1.20113   0.00000  -0.00000   0.31084   0.11932   0.10023
  30  H 1   s       -0.56784   0.00000   0.00000   0.11882   0.02608   0.07997
  31  H 1   px       0.00000  -0.11580   0.05126  -0.00000  -0.00000  -0.00000
  32  H 1   py       1.00338  -0.00000   0.00000  -0.28202  -0.10893  -0.05705
  33  H 1   pz       0.45994   0.00000   0.00000   0.08769   0.08551  -0.13028
  34  H 2   s       -0.20246   0.00000   0.00000  -0.42234   0.22156  -1.45666
  35  H 2   s       -0.03777   0.00000   0.00000  -0.00109  -0.12034  -0.33211
  36  H 2   px       0.00000  -0.45945  -0.16594   0.00000   0.00000  -0.00000
  37  H 2   py      -0.25723   0.00000   0.00000  -0.04652   0.22319  -0.98538
  38  H 2   pz      -0.23001  -0.00000   0.00000  -0.36556  -0.16929  -0.33531
  39  H 3   s        0.83327   0.16807   0.24756  -0.14724  -0.04715  -0.00786
  40  H 3   s        0.39936   0.10276  -0.02231   0.00264  -0.04185   0.03533
  41  H 3   px      -0.61114  -0.08634  -0.20678   0.11486   0.07768  -0.02420
  42  H 3   py       0.43217  -0.02132   0.13472  -0.01972   0.04806  -0.05310
  43  H 3   pz      -0.29394  -0.13148   0.15005   0.01386  -0.05121   0.05497
  44  H 4   s        0.83327  -0.16807  -0.24756  -0.14724  -0.04715  -0.00786
  45  H 4   s        0.39936  -0.10276   0.02231   0.00264  -0.04185   0.03533
  46  H 4   px       0.61114  -0.08634  -0.20678  -0.11486  -0.07768   0.02420
  47  H 4   py       0.43217   0.02132  -0.13472  -0.01972   0.04806  -0.05310
  48  H 4   pz      -0.29394   0.13148  -0.15005   0.01386  -0.05121   0.05497


                        BETA  MOLECULAR ORBITAL COEFFICIENTS
                         1         2         3         4         5         6
 eigenvalues:        -20.553   -11.279    -1.353    -0.910    -0.678    -0.618
   1  C     s        0.00001   0.99751  -0.06961  -0.16529  -0.01843   0.00000
   2  C     s       -0.00003   0.01772   0.14000   0.35394   0.03464  -0.00000
   3  C     s       -0.00255  -0.00703   0.03836   0.22147   0.03749  -0.00000
   4  C     px      -0.00000   0.00000   0.00000  -0.00000  -0.00000  -0.36255
   5  C     py      -0.00001  -0.00002   0.00058   0.01114  -0.21361   0.00000
   6  C     pz       0.00030  -0.00063  -0.10992   0.05481   0.17039   0.00000
   7  C     px       0.00000   0.00000   0.00000   0.00000  -0.00000  -0.15103
   8  C     py       0.00001   0.00009  -0.00565  -0.00541  -0.10146   0.00000
   9  C     pz       0.00107  -0.00048  -0.01485   0.03171   0.06436   0.00000
[...]
  25  O     d 2     -0.00000   0.01517  -0.02259   0.00546  -0.00000   0.03011
  26  O     d 3      0.00000  -0.00410   0.01307   0.00697  -0.00000   0.04104
  27  O     d 4     -0.02780  -0.00000   0.00000   0.00000   0.02657  -0.00000
  28  O     d 5      0.00000  -0.02325   0.05481   0.00795  -0.00000   0.00030
  29  H 1   s        0.00000  -0.54388  -0.38713  -0.15243   0.00000   0.52347
  30  H 1   s        0.00000   0.32540   1.56962  -0.44290   0.00000   0.66325
  31  H 1   px      -0.05935  -0.00000   0.00000  -0.00000  -0.21433   0.00000
  32  H 1   py       0.00000  -0.13317  -0.25441   0.13908  -0.00000  -0.01537
  33  H 1   pz       0.00000  -0.03610  -0.10493  -0.20576   0.00000  -0.14626
  34  H 2   s       -0.00000   0.33077  -0.59822   0.30421  -0.00000  -0.02309
  35  H 2   s        0.00000  -0.48974   0.41747   0.20522  -0.00000   0.26659
  36  H 2   px       0.01986   0.00000  -0.00000   0.00000   0.02977   0.00000
  37  H 2   py       0.00000  -0.07274   0.18931   0.25738  -0.00000   0.10973
  38  H 2   pz       0.00000  -0.01326   0.06708   0.05864  -0.00000  -0.23903
  39  H 3   s        0.26389  -0.65365   0.01406  -0.08514  -0.05694   0.46663
  40  H 3   s       -1.49640   0.74094  -0.51706  -0.25818  -0.09083   0.75034
  41  H 3   px       0.17352  -0.18025   0.06213  -0.08809   0.02347  -0.11237
  42  H 3   py      -0.13201   0.08364   0.02051  -0.12968  -0.13157  -0.04083
  43  H 3   pz       0.09953  -0.02191   0.03005   0.14204  -0.25695  -0.01252
  44  H 4   s       -0.26389  -0.65365   0.01406  -0.08514   0.05694   0.46663
  45  H 4   s        1.49640   0.74094  -0.51706  -0.25818   0.09083   0.75034
  46  H 4   px       0.17352   0.18025  -0.06213   0.08809   0.02347   0.11237
  47  H 4   py       0.13201   0.08364   0.02051  -0.12968   0.13157  -0.04083
  48  H 4   pz      -0.09953  -0.02191   0.03005   0.14204   0.25695  -0.01252
                        25        26        27        28        29        30
 eigenvalues:          1.266     1.327     1.443     1.587     1.660     1.661
   1  C     s       -0.02370  -0.00000  -0.05199   0.00000   0.00000   0.01899
   2  C     s       -0.33962  -0.00000  -0.82361  -0.00000   0.00000   0.35178
   3  C     s       -0.35891   0.00000   2.04207  -0.00000  -0.00000  -0.37810
   4  C     px      -0.00000   0.09625   0.00000  -0.00932   0.01223  -0.00000
   5  C     py      -0.12596   0.00000   0.07639  -0.00000   0.00000   0.00269
   6  C     pz       0.23584  -0.00000   0.15859   0.00000  -0.00000  -0.15242
   7  C     px       0.00000  -0.62690   0.00000  -0.50355  -0.04715   0.00000
   8  C     py       0.31547   0.00000   0.29783  -0.00000   0.00000   0.27425
   9  C     pz       0.88823   0.00000  -0.31479   0.00000  -0.00000  -0.22142
  10  C     d 1     -0.00000   0.07431  -0.00000   0.21647   0.00816  -0.00000
  11  C     d 2     -0.04436  -0.00000  -0.50411   0.00000   0.00000   0.01831
  12  C     d 3     -0.43155  -0.00000   0.02581  -0.00000   0.00000   0.13383
  13  C     d 4     -0.00000   0.48646   0.00000   0.07873  -0.01327   0.00000
  14  C     d 5     -0.04570  -0.00000  -0.03277   0.00000  -0.00000  -0.14023
  15  O     s       -0.04339   0.00000  -0.01807  -0.00000  -0.00000  -0.00044
  16  O     s        0.25435  -0.00000   0.05827  -0.00000  -0.00000  -0.06441
  17  O     s        0.22500   0.00000  -0.01607   0.00000   0.00000   0.17107
  18  O     px      -0.00000  -0.68219   0.00000  -0.26294   0.01336  -0.00000
  19  O     py      -0.00493  -0.00000   0.43297  -0.00000   0.00000   0.24128
  20  O     pz      -0.71766   0.00000   0.09521   0.00000  -0.00000  -0.03181
  21  O     px       0.00000   0.96647   0.00000   0.83097  -0.05520   0.00000
  22  O     py       0.15175  -0.00000  -1.48462   0.00000  -0.00000  -0.61262
  23  O     pz       1.63080  -0.00000  -0.48375   0.00000  -0.00000  -0.55388
  24  O     d 1      0.00000  -0.01483  -0.00000   0.15399  -0.01960   0.00000
  25  O     d 2     -0.00008  -0.00000   0.08347   0.00000  -0.00000  -0.08612
  26  O     d 3     -0.01643  -0.00000  -0.00574   0.00000   0.00000   0.00804
  27  O     d 4      0.00000  -0.08494  -0.00000   0.00852  -0.00411   0.00000
  28  O     d 5      0.02057   0.00000   0.07224   0.00000  -0.00000  -0.01077
  29  H 1   s       -0.19023  -0.00000  -0.19240  -0.00000  -0.00000  -0.03909
  30  H 1   s       -0.28029  -0.00000  -0.25154  -0.00000   0.00000   0.01752
  31  H 1   px       0.00000   0.08770   0.00000  -0.14339  -0.55345   0.00000
  32  H 1   py       0.07286   0.00000   0.03266  -0.00000   0.00000   0.21801
  33  H 1   pz      -0.13927  -0.00000  -0.09275   0.00000  -0.00000  -0.40738
  34  H 2   s       -0.00880  -0.00000  -0.82649   0.00000  -0.00000  -0.41840
  35  H 2   s        0.82677  -0.00000  -0.38118   0.00000  -0.00000  -0.10576
  36  H 2   px       0.00000   0.28383  -0.00000  -0.94231   0.10748  -0.00000
  37  H 2   py       0.18091  -0.00000  -0.09443   0.00000  -0.00000  -0.36030
  38  H 2   pz       0.11074   0.00000  -0.42423  -0.00000   0.00000   0.56041
  39  H 3   s       -0.07569   0.01654  -0.29634   0.17115   0.02790   0.18218
  40  H 3   s       -0.09527   0.21387  -0.17209   0.18200   0.00641   0.12105
  41  H 3   px      -0.01550  -0.03915  -0.04372  -0.00963   0.32628  -0.02675
  42  H 3   py       0.00093   0.06342  -0.11588   0.03113   0.52343   0.17543
  43  H 3   pz      -0.02456   0.13578   0.00640   0.09803  -0.01632   0.33694
  44  H 4   s       -0.07569  -0.01654  -0.29634  -0.17115  -0.02790   0.18218
  45  H 4   s       -0.09527  -0.21387  -0.17209  -0.18200  -0.00641   0.12105
  46  H 4   px       0.01550  -0.03915   0.04372  -0.00963   0.32628   0.02675
  47  H 4   py       0.00093  -0.06342  -0.11588  -0.03113  -0.52343   0.17543
  48  H 4   pz      -0.02456  -0.13578   0.00640  -0.09803   0.01632   0.33694
                        31        32        33        34        35        36
 eigenvalues:          1.842     1.890     1.934     1.948     2.027     2.145
   1  C     s       -0.00000   0.00509   0.02285  -0.00000  -0.04599   0.01129
   2  C     s       -0.00000  -0.05863  -0.06583   0.00000  -0.33768  -0.05062
   3  C     s        0.00000  -0.07286  -0.44220   0.00000   1.73511  -0.97640
   4  C     px       0.07722  -0.00000   0.00000   0.16114  -0.00000   0.00000
   5  C     py      -0.00000   0.11050  -0.07983   0.00000  -0.07459  -0.06993
   6  C     pz       0.00000   0.08546   0.19298  -0.00000  -0.17349   0.24092
   7  C     px      -1.20945   0.00000  -0.00000  -0.22887  -0.00000   0.00000
   8  C     py      -0.00000  -1.20834   0.25128  -0.00000  -0.50250  -0.67661
   9  C     pz       0.00000   0.29678   1.12399  -0.00000  -0.55193  -0.06199
  10  C     d 1      0.36715  -0.00000   0.00000   0.53458   0.00000   0.00000
  11  C     d 2     -0.00000  -0.23276   0.35987  -0.00000   0.34200   0.52011
  12  C     d 3     -0.00000  -0.25629  -0.66994   0.00000   0.65733  -0.35347
  13  C     d 4      0.12231  -0.00000  -0.00000  -0.71519   0.00000   0.00000
  14  C     d 5      0.00000   0.56958  -0.26728   0.00000  -0.21550   0.02687
  15  O     s       -0.00000  -0.01081  -0.04536   0.00000   0.03703  -0.01360
  16  O     s        0.00000  -0.09323  -0.23539   0.00000   1.08679  -0.72649
  17  O     s       -0.00000   0.43369   1.42136  -0.00000  -2.56115   1.29816
  18  O     px      -0.08429   0.00000  -0.00000  -0.17319   0.00000   0.00000
  19  O     py      -0.00000  -0.19798   0.00245   0.00000   0.13863  -0.00205
  20  O     pz       0.00000   0.20462   0.48955  -0.00000  -0.04340  -0.08280
  21  O     px       0.41617  -0.00000  -0.00000  -0.04992   0.00000  -0.00000
  22  O     py       0.00000   0.47221  -0.17334   0.00000   0.58937   0.10700
  23  O     pz       0.00000   0.07187   0.10251  -0.00000  -0.44668   0.91668
  24  O     d 1      0.02985  -0.00000  -0.00000  -0.01227  -0.00000   0.00000
  25  O     d 2      0.00000   0.01792  -0.06291   0.00000  -0.01603  -0.01962
  26  O     d 3     -0.00000  -0.00980  -0.03479   0.00000   0.09325  -0.06562
  27  O     d 4     -0.08204   0.00000   0.00000   0.15109  -0.00000  -0.00000
  28  O     d 5      0.00000   0.02448  -0.01728   0.00000  -0.11838   0.08381
  29  H 1   s        0.00000   0.66707  -0.51014   0.00000  -0.14642   0.10049
  30  H 1   s       -0.00000   0.18729   0.02820  -0.00000   0.15809   0.54470
  31  H 1   px       0.52546  -0.00000  -0.00000  -0.08555  -0.00000  -0.00000
  32  H 1   py       0.00000   0.41007  -0.07808   0.00000   0.10831  -0.07549
  33  H 1   pz       0.00000  -0.23419  -0.55399   0.00000  -0.44839  -0.10807
  34  H 2   s        0.00000   0.15504  -0.20056   0.00000   0.60699  -0.07818
  35  H 2   s       -0.00000  -0.11185   0.09503  -0.00000   0.04757  -0.03778
  36  H 2   px      -0.04578   0.00000   0.00000   0.25346  -0.00000   0.00000
  37  H 2   py       0.00000   0.03621  -0.10079   0.00000   0.39888   0.21979
  38  H 2   pz      -0.00000  -0.12304  -0.00072   0.00000  -0.20270  -0.64658
  39  H 3   s        0.45868  -0.45054  -0.01148   0.49005  -0.05805   0.04621
  40  H 3   s        0.30515  -0.09168  -0.05524  -0.20993  -0.30551  -0.11225
  41  H 3   px       0.41479  -0.01675   0.05351   0.08866   0.20965   0.00207
  42  H 3   py       0.00199   0.36633  -0.03256  -0.14213   0.26254   0.14724
  43  H 3   pz      -0.43217  -0.07432  -0.28400   0.43544  -0.04878   0.56248
  44  H 4   s       -0.45868  -0.45054  -0.01148  -0.49005  -0.05805   0.04621
  45  H 4   s       -0.30515  -0.09168  -0.05524   0.20993  -0.30551  -0.11225
  46  H 4   px       0.41479   0.01675  -0.05351   0.08866  -0.20965  -0.00207
  47  H 4   py      -0.00199   0.36633  -0.03256   0.14213   0.26254   0.14724
  48  H 4   pz       0.43217  -0.07432  -0.28400  -0.43544  -0.04878   0.56248
                        37        38        39        40        41        42
 eigenvalues:          2.267     2.356     2.364     2.451     2.717     2.724
   1  C     s        0.00458   0.00000   0.01606   0.00458  -0.00000  -0.05013
   2  C     s       -0.10252   0.00000   0.41920   0.05562   0.00000   1.05609
   3  C     s        0.26551  -0.00000  -0.93708  -0.13775   0.00000   1.85823
   4  C     px      -0.00000  -0.14243   0.00000  -0.00000  -1.29883   0.00000
   5  C     py       0.03257  -0.00000  -0.02300   0.29197  -0.00000   0.24185
   6  C     pz      -0.28351   0.00000   0.35748  -0.10520   0.00000   0.58210
   7  C     px      -0.00000  -0.66441   0.00000  -0.00000  -1.07809   0.00000
   8  C     py      -0.06249  -0.00000  -0.22037   0.55345  -0.00000   0.26448
   9  C     pz      -0.47222   0.00000   0.72246   0.11672   0.00000   0.25023
  10  C     d 1     -0.00000  -0.85912   0.00000  -0.00000   1.11893  -0.00000
  11  C     d 2     -0.28562  -0.00000  -0.28353   0.49321  -0.00000   0.24347
  12  C     d 3     -0.54081   0.00000   0.27481   0.12301  -0.00000  -0.72890
  13  C     d 4     -0.00000  -0.56101   0.00000  -0.00000  -0.65877   0.00000
  14  C     d 5     -0.52058  -0.00000  -0.47924   0.46261   0.00000  -0.12414
  15  O     s        0.01484  -0.00000   0.00088   0.03278   0.00000  -0.00049
  16  O     s        0.41137  -0.00000  -1.22774  -0.18992   0.00000   0.44493
  17  O     s       -1.07433   0.00000   1.62352  -0.66455  -0.00000  -0.47103
  18  O     px      -0.00000  -0.14023   0.00000  -0.00000  -0.04412   0.00000
  19  O     py       0.28457  -0.00000   0.22060   0.57596   0.00000  -0.03031
  20  O     pz       0.37719  -0.00000  -0.14577   0.15240   0.00000   0.21559
  21  O     px       0.00000   0.22808  -0.00000   0.00000   0.06557  -0.00000
  22  O     py      -0.00932  -0.00000  -0.11647   0.19193   0.00000   0.02464
  23  O     pz      -0.41599   0.00000   0.60889   0.07117  -0.00000  -0.19196
  24  O     d 1     -0.00000  -0.09202   0.00000  -0.00000   0.10989  -0.00000
  25  O     d 2      0.10714   0.00000   0.09756  -0.04668   0.00000  -0.03378
  26  O     d 3      0.04776  -0.00000  -0.05853  -0.02469   0.00000   0.05783
  27  O     d 4      0.00000   0.14607  -0.00000   0.00000   0.10891  -0.00000
  28  O     d 5     -0.08692   0.00000  -0.00049  -0.12390   0.00000  -0.05146
  29  H 1   s       -0.13203   0.00000  -0.02201  -0.17154   0.00000  -1.05572
  30  H 1   s        0.12357   0.00000   0.09835  -0.37076   0.00000  -0.55784
  31  H 1   px       0.00000   0.91958  -0.00000   0.00000   0.00349  -0.00000
  32  H 1   py      -0.28778   0.00000   0.25490   0.33426  -0.00000   1.02065
  33  H 1   pz       0.58185  -0.00000  -0.02694  -0.17509  -0.00000   0.49385
  34  H 2   s        0.16628  -0.00000  -0.11657   0.49964   0.00000   0.01374
  35  H 2   s        0.08613   0.00000   0.21836   0.36989   0.00000   0.06416
  36  H 2   px      -0.00000  -0.13819   0.00000  -0.00000   0.13153  -0.00000
  37  H 2   py       0.51339   0.00000   0.43922   0.92151   0.00000  -0.03001
  38  H 2   pz       0.29496  -0.00000   0.14334   0.34451   0.00000  -0.01281
  39  H 3   s        0.00946   0.01812   0.08589   0.14656   1.19878  -0.64741
  40  H 3   s        0.05157   0.33171  -0.13244   0.17047   0.63553  -0.29529
  41  H 3   px      -0.02069   0.08581   0.46867  -0.43086  -0.93132   0.56294
  42  H 3   py       0.45099   0.47048   0.18802  -0.34271   0.52158  -0.38695
  43  H 3   pz       0.19334   0.30816  -0.31650   0.01452  -0.39708   0.32286
  44  H 4   s        0.00946  -0.01812   0.08589   0.14656  -1.19878  -0.64741
  45  H 4   s        0.05157  -0.33171  -0.13244   0.17047  -0.63553  -0.29529
  46  H 4   px       0.02069   0.08581  -0.46867   0.43086  -0.93132  -0.56294
  47  H 4   py       0.45099  -0.47048   0.18802  -0.34271  -0.52158  -0.38695
  48  H 4   pz       0.19334  -0.30816  -0.31650   0.01452   0.39708   0.32286
                        43        44        45        46        47        48
 eigenvalues:          2.744     3.295     3.390     3.454     3.584     4.050
   1  C     s        0.01117   0.00000  -0.00000   0.01493  -0.04061  -0.01185
   2  C     s       -0.25697  -0.00000   0.00000  -0.24201   0.20357   0.03409
   3  C     s       -0.48602  -0.00000  -0.00000  -0.52579   0.79539   0.04934
   4  C     px      -0.00000  -0.14137  -0.16684   0.00000   0.00000  -0.00000
   5  C     py       1.24317   0.00000   0.00000  -0.16025   0.01733  -0.02816
   6  C     pz       0.02978   0.00000  -0.00000   0.35528  -0.50078  -0.10917
   7  C     px      -0.00000  -0.26392   0.07332   0.00000   0.00000  -0.00000
   8  C     py       0.93283   0.00000   0.00000  -0.09593  -0.06925   0.03602
   9  C     pz       0.05935   0.00000  -0.00000   0.18484  -0.50182  -0.17608
  10  C     d 1      0.00000   0.33028   0.13568  -0.00000  -0.00000   0.00000
  11  C     d 2      0.67811  -0.00000   0.00000  -0.52913  -0.37854   0.02493
  12  C     d 3      0.15403  -0.00000   0.00000  -0.31504   0.45201   0.16173
  13  C     d 4     -0.00000   0.20100  -0.70471  -0.00000   0.00000  -0.00000
  14  C     d 5     -1.16593  -0.00000  -0.00000   0.13646  -0.05818   0.13117
  15  O     s       -0.01419  -0.00000   0.00000  -0.03372   0.04122  -0.03696
  16  O     s       -0.11124  -0.00000   0.00000  -0.43935   0.45932  -0.08863
  17  O     s        0.49721   0.00000  -0.00000   1.20826  -1.46160   1.12972
  18  O     px      -0.00000  -0.04259   0.01530   0.00000   0.00000   0.00000
  19  O     py      -0.12396  -0.00000   0.00000  -0.03154   0.08776  -0.30877
  20  O     pz      -0.11739  -0.00000   0.00000  -0.05294  -0.00791  -0.12523
  21  O     px       0.00000   0.33000  -0.18235  -0.00000   0.00000  -0.00000
  22  O     py      -0.20079  -0.00000   0.00000  -0.48412   0.00050  -0.96212
  23  O     pz       0.19822   0.00000  -0.00000   0.56360  -0.65083  -0.51045
  24  O     d 1      0.00000  -1.00817  -0.21702   0.00000   0.00000  -0.00000
  25  O     d 2     -0.07723  -0.00000  -0.00000  -0.72915  -0.52668   0.67309
  26  O     d 3     -0.01309   0.00000  -0.00000   0.32344  -0.97349  -0.51627
  27  O     d 4      0.00000   0.19595  -1.00672  -0.00000   0.00000  -0.00000
  28  O     d 5     -0.06839  -0.00000   0.00000  -0.67304   0.10472  -0.93524
  29  H 1   s       -1.20113   0.00000  -0.00000   0.31084   0.11932   0.10023
  30  H 1   s       -0.56784   0.00000  -0.00000   0.11882   0.02608   0.07997
  31  H 1   px       0.00000  -0.11580   0.05126  -0.00000  -0.00000  -0.00000
  32  H 1   py       1.00338  -0.00000   0.00000  -0.28202  -0.10893  -0.05705
  33  H 1   pz       0.45994   0.00000   0.00000   0.08769   0.08551  -0.13028
  34  H 2   s       -0.20246  -0.00000   0.00000  -0.42234   0.22156  -1.45666
  35  H 2   s       -0.03777   0.00000  -0.00000  -0.00109  -0.12034  -0.33211
  36  H 2   px       0.00000  -0.45945  -0.16594   0.00000   0.00000  -0.00000
  37  H 2   py      -0.25723   0.00000   0.00000  -0.04652   0.22319  -0.98538
  38  H 2   pz      -0.23001  -0.00000   0.00000  -0.36556  -0.16929  -0.33531
  39  H 3   s        0.83327   0.16807   0.24756  -0.14724  -0.04715  -0.00786
  40  H 3   s        0.39936   0.10276  -0.02231   0.00264  -0.04185   0.03533
  41  H 3   px      -0.61114  -0.08634  -0.20678   0.11486   0.07768  -0.02420
  42  H 3   py       0.43217  -0.02132   0.13472  -0.01972   0.04806  -0.05310
  43  H 3   pz      -0.29394  -0.13148   0.15005   0.01386  -0.05121   0.05497
  44  H 4   s        0.83327  -0.16807  -0.24756  -0.14724  -0.04715  -0.00786
  45  H 4   s        0.39936  -0.10276   0.02231   0.00264  -0.04185   0.03533
  46  H 4   px       0.61114  -0.08634  -0.20678  -0.11486  -0.07768   0.02420
  47  H 4   py       0.43217   0.02132  -0.13472  -0.01972   0.04806  -0.05310
  48  H 4   pz      -0.29394   0.13148  -0.15005   0.01386  -0.05121   0.05497

          Ground-State Mulliken Net Atomic Charges

     Atom                 Charge (a.u.)    Spin (a.u.)
  --------------------------------------------------------
      1 C                     0.137895       0.000000
      2 O                    -0.391950      -0.000000
      3 H                     0.043314       0.000000
      4 H                     0.176104       0.000000
      5 H                     0.017319       0.000000
      6 H                     0.017319      -0.000000
  --------------------------------------------------------
  Sum of atomic charges =    -0.000000
  Sum of spin   charges =     0.000000

 -----------------------------------------------------------------
                    Cartesian Multipole Moments
 -----------------------------------------------------------------
    Charge (ESU x 10^10)
                -0.0000
    Dipole Moment (Debye)
         X       0.0000      Y      -1.5353      Z       0.9122
       Tot       1.7858
    Quadrupole Moments (Debye-Ang)
        XX     -13.5189     XY      -0.0000     YY     -11.6559
        XZ       0.0000     YZ       2.1448     ZZ     -12.9960
    Octopole Moments (Debye-Ang^2)
       XXX       0.0000    XXY      -0.2322    XYY       0.0000
       YYY      -0.0671    XXZ      -1.4806    XYZ      -0.0000
       YYZ      -3.1166    XZZ       0.0000    YZZ      -1.5144
       ZZZ      -6.5760
    Hexadecapole Moments (Debye-Ang^3)
      XXXX     -19.2830   XXXY      -0.0000   XXYY      -6.6555
      XYYY      -0.0000   YYYY     -18.9667   XXXZ       0.0000
      XXYZ      -0.5336   XYYZ       0.0000   YYYZ       2.3462
      XXZZ     -13.7152   XYZZ      -0.0000   YYZZ     -11.9860
      XZZZ       0.0000   YZZZ       2.2865   ZZZZ     -60.9350
 -----------------------------------------------------------------
 Total job time:  3.87s(wall), 7.31s(cpu) 
 Mon Jul  6 15:16:19 2026

        *************************************************************
        *                                                           *
        *  Thank you very much for using Q-Chem.  Have a nice day.  *
        *                                                           *
        *************************************************************


