TDDFT Dyson orbitals
SP        U                             cc-pVDZ             
Number of atoms                            I                6
Charge                                     I                0
Multiplicity                               I                1
Number of electrons                        I               18
Number of alpha electrons                  I                9
Number of beta electrons                   I                9
Atomic numbers                             I   N=           6
           6           8           1           1           1           1
Current cartesian coordinates              R   N=          18
  0.00000000E+00 -2.78298077E-02  1.35229028E+00  0.00000000E+00  1.31435176E-01
 -1.28528570E+00  0.00000000E+00  1.91103146E+00  2.14986620E+00  0.00000000E+00
 -1.63748378E+00 -1.90778454E+00  1.72932390E+00 -1.01411888E+00  2.02265929E+00
 -1.72932390E+00 -1.01411888E+00  2.02265929E+00
Nuclear charges                            R   N=           6
  6.00000000E+00  8.00000000E+00  1.00000000E+00  1.00000000E+00  1.00000000E+00
  1.00000000E+00
Number of basis functions                  I               48
Number of contracted shells                I               24
Number of primitive shells                 I               60
Highest angular momentum                   I                2
Largest degree of contraction              I                7
Shell types                                I   N=          24
           0           0           0           1           1          -2
           0           0           0           1           1          -2
           0           0           1           0           0           1
           0           0           1           0           0           1
Number of primitives per shell             I   N=          24
           7           7           1           3           1           1
           7           7           1           3           1           1
           3           1           1           3           1           1
           3           1           1           3           1           1
Shell to atom map                          I   N=          24
           1           1           1           1           1           1
           2           2           2           2           2           2
           3           3           3           4           4           4
           5           5           5           6           6           6
Primitive exponents                        R   N=          60
  6.66500000E+03  1.00000000E+03  2.28000000E+02  6.47100000E+01  2.10600000E+01
  7.49500000E+00  2.79700000E+00  6.66500000E+03  1.00000000E+03  6.47100000E+01
  2.10600000E+01  7.49500000E+00  2.79700000E+00  5.21500000E-01  1.59600000E-01
  9.43900000E+00  2.00200000E+00  5.45600000E-01  1.51700000E-01  5.50000000E-01
  1.17200000E+04  1.75900000E+03  4.00800000E+02  1.13700000E+02  3.70300000E+01
  1.32700000E+01  5.02500000E+00  1.17200000E+04  1.75900000E+03  1.13700000E+02
  3.70300000E+01  1.32700000E+01  5.02500000E+00  1.01300000E+00  3.02300000E-01
  1.77000000E+01  3.85400000E+00  1.04600000E+00  2.75300000E-01  1.18500000E+00
  1.30100000E+01  1.96200000E+00  4.44600000E-01  1.22000000E-01  7.27000000E-01
  1.30100000E+01  1.96200000E+00  4.44600000E-01  1.22000000E-01  7.27000000E-01
  1.30100000E+01  1.96200000E+00  4.44600000E-01  1.22000000E-01  7.27000000E-01
  1.30100000E+01  1.96200000E+00  4.44600000E-01  1.22000000E-01  7.27000000E-01
Contraction coefficients                   R   N=          60
  6.93514891E-04  5.34150483E-03  2.71366677E-02  1.01992389E-01  2.75508635E-01
  4.51086433E-01  2.87565746E-01  6.23549108E-07 -5.48522070E-05 -3.63136897E-03
 -1.17983738E-02 -1.10909895E-01 -1.34742244E-01  1.10175849E+00  1.00000000E+00
  5.69792516E-02  3.13207212E-01  7.60376742E-01  1.00000000E+00  1.00000000E+00
  7.11859989E-04  5.48520206E-03  2.79099247E-02  1.05133208E-01  2.84002488E-01
  4.51673950E-01  2.73208124E-01 -3.13436252E-07 -6.17665315E-05 -4.15726173E-03
 -1.41000865E-02 -1.26138482E-01 -1.09614593E-01  1.09868833E+00  1.00000000E+00
  6.26791663E-02  3.33536566E-01  7.41239642E-01  1.00000000E+00  1.00000000E+00
  3.34987264E-02  2.34800801E-01  8.13682958E-01  1.00000000E+00  1.00000000E+00
  3.34987264E-02  2.34800801E-01  8.13682958E-01  1.00000000E+00  1.00000000E+00
  3.34987264E-02  2.34800801E-01  8.13682958E-01  1.00000000E+00  1.00000000E+00
  3.34987264E-02  2.34800801E-01  8.13682958E-01  1.00000000E+00  1.00000000E+00
Coordinates of each shell                  R   N=          72
  0.00000000E+00 -2.78298077E-02  1.35229028E+00  0.00000000E+00 -2.78298077E-02
  1.35229028E+00  0.00000000E+00 -2.78298077E-02  1.35229028E+00  0.00000000E+00
 -2.78298077E-02  1.35229028E+00  0.00000000E+00 -2.78298077E-02  1.35229028E+00
  0.00000000E+00 -2.78298077E-02  1.35229028E+00  0.00000000E+00  1.31435176E-01
 -1.28528570E+00  0.00000000E+00  1.31435176E-01 -1.28528570E+00  0.00000000E+00
  1.31435176E-01 -1.28528570E+00  0.00000000E+00  1.31435176E-01 -1.28528570E+00
  0.00000000E+00  1.31435176E-01 -1.28528570E+00  0.00000000E+00  1.31435176E-01
 -1.28528570E+00  0.00000000E+00  1.91103146E+00  2.14986620E+00  0.00000000E+00
  1.91103146E+00  2.14986620E+00  0.00000000E+00  1.91103146E+00  2.14986620E+00
  0.00000000E+00 -1.63748378E+00 -1.90778454E+00  0.00000000E+00 -1.63748378E+00
 -1.90778454E+00  0.00000000E+00 -1.63748378E+00 -1.90778454E+00  1.72932390E+00
 -1.01411888E+00  2.02265929E+00  1.72932390E+00 -1.01411888E+00  2.02265929E+00
  1.72932390E+00 -1.01411888E+00  2.02265929E+00 -1.72932390E+00 -1.01411888E+00
  2.02265929E+00 -1.72932390E+00 -1.01411888E+00  2.02265929E+00 -1.72932390E+00
 -1.01411888E+00  2.02265929E+00
Orthonormalization Matrix                  R   N=        1176
  1.90867407E-02 -1.08236011E-01 -8.76322355E-16 -8.82932640E-02  8.96040145E-02
 -4.26812178E-02 -4.74324762E-16 -7.01630677E-02 -3.00183920E-03 -5.13236960E-02
  3.80736437E-16  4.02397411E-17  3.76861013E-01  1.80740013E-02 -1.40880695E-01
 -7.37674531E-16 -2.58439455E-01  2.78208734E-15 -3.16753359E-03  1.76278573E-02
  2.91040452E-03 -2.62002400E-01 -1.85637496E-01 -9.53629603E-01 -2.62002400E-01
  3.77787032E-03 -2.19557803E-01 -1.80772299E-16  1.31071791E-01 -5.93405400E-01
 -9.03175703E-18 -2.46261586E-01  5.33952111E-04  1.00989484E-03 -1.24092847E-01
  3.95903851E-02 -7.95632078E-03 -2.39605284E-02  2.04417396E-01 -2.18556367E-04
 -1.71766375E-03  1.97272472E-02  5.25285817E-02  2.42581236E-02 -2.68566625E-01
  3.68965133E-16  1.20758555E+00  7.33903860E-01  1.62146914E-02 -2.24141161E-16
  2.71579044E-17 -5.82704720E-02 -2.44870944E-01  1.38013160E-02 -1.61188186E-17
 -2.21690108E-03  1.90665124E-16 -3.34045236E-01  3.68965133E-16 -8.98674296E-16
  7.77591717E-03  1.99863718E-02 -2.46753657E-16 -4.03283707E-16  1.69518501E-02
  7.82970503E-03 -4.63123461E-02  1.28942399E-02  4.70090649E-03  2.60850445E-02
 -8.18687956E-03  1.58401751E-15  3.76745533E-16  9.32853047E-03  8.53824623E-17
 -3.50617753E-02  1.19358216E-02 -2.39989400E-16  5.66125205E-03  1.47911835E-02
 -1.34306540E-02  1.09014290E-02 -4.34498096E-18 -1.19812120E-02 -1.22243898E-02
 -2.66442846E-01 -8.98674296E-16 -3.16661695E-16 -2.77399982E-02 -2.39673561E-16
  2.15432224E-02  5.97715449E-02  6.55400077E-03 -3.27408069E-03 -4.39798861E-16
  5.16350993E-01  3.56619614E-02  6.18410491E-03 -1.81771290E-01  1.41185310E-16
  1.08985517E+00  1.90357881E-03  7.27998721E-16 -7.92298944E-17  5.58936547E-03
 -5.68329132E-16 -1.49665402E-01 -1.83853784E-01  9.88989438E-02 -1.96388460E-01
 -2.98688726E-01  2.71824480E+00  1.57574687E-01  1.27877068E-01 -2.56918001E-01
 -7.65847210E-03  6.51815853E-03  1.07894906E-01 -7.75662667E-03  8.63701820E-16
  9.89452018E-02  9.75750189E-02  7.67630401E-03 -2.98688726E-01 -7.01630677E-02
 -1.10284134E-01 -1.18129951E-01  1.54197738E-16 -7.54558128E-02  2.89680522E-02
  5.60587625E-02  1.20316104E-02  3.45601117E-16 -2.66782360E-16  3.51020098E-04
 -9.92305707E-02 -2.95786931E-16 -7.00013598E-16  1.08367324E-03 -2.06512441E-02
  2.85858227E-16 -2.58439455E-01  4.02397411E-17 -2.39403184E-01  1.16756749E-15
 -1.13475609E-15  3.20983922E-16 -4.55440449E-01 -5.36354770E-02  1.76278573E-02
  1.20910161E-02 -2.93886424E-03  1.02228737E+00  6.93458663E-02  6.97019710E-02
  1.98844808E-01 -4.63123461E-02  2.64015645E-02  1.96498651E-16  1.41275418E+00
  5.64189970E-03  2.02003102E-02  1.54197738E-16  1.41185310E-16  3.56619614E-02
  3.27782748E-16  4.37137159E-02 -1.96388460E-01 -9.88989438E-02  1.72066522E-16
  1.27497333E-03  6.20288456E-01  1.03271658E-01 -7.45300193E-03  8.19676921E-02
 -2.19313205E-01  2.57490234E-16  8.47133561E-03  4.86251170E-04 -4.62757508E-03
  2.50000753E-16  1.03751278E+00  2.60850445E-02  1.65072086E-01  2.57468846E-17
 -2.29640266E-01  3.70440292E-16 -4.82432514E-02  6.16297719E-02 -2.05775553E-16
 -1.28321703E-16 -1.10284134E-01  7.83540360E-16  1.37148570E-02 -2.77399982E-02
  3.68262719E-16  3.54066329E-03  4.84589940E-02  1.96251101E-03  2.57490234E-16
  6.01127408E-17  1.05486250E-02 -5.60214230E-04 -8.16812889E-02  8.10390028E-16
  5.43270172E-16  5.05629455E-16  2.91040452E-03 -3.27408069E-03 -3.90008241E-02
 -1.07633653E-02  1.87254283E-01  3.95903851E-02 -9.11547504E-02 -2.04815738E-03
  5.69675014E-03  1.79916382E-15 -5.57339581E-16  1.33894706E+00 -3.70811259E-16
  7.06760452E-17 -1.35263639E-16 -1.22243898E-02  6.18410491E-03 -6.93273315E-16
 -1.82211028E-15 -2.19892188E-15  5.50153359E-16  6.51815853E-03  1.10396597E-16
  2.48959657E-16 -1.31312505E+00 -5.70903899E-02  9.48840468E-02 -2.73856129E-01
  1.27286263E-03 -2.47665939E-02  3.00510409E-01  2.25072552E-02 -1.79251792E-01
  4.83545114E-02 -2.56918001E-01  9.32853047E-03  1.70103601E-15  1.71207386E-16
 -6.66226138E-02 -1.41683753E-02 -8.05649880E-16  9.85374174E-02 -4.43140890E-16
  1.60206882E-03 -3.63420559E-01 -8.82932640E-02 -1.22527719E-01 -1.62678991E-01
  7.46148095E-03  4.62667132E-03  2.05507497E-04  2.67196066E-02  3.95002439E-02
 -1.12649320E-16  1.73696181E-01 -1.38013160E-02  6.53295979E-16 -5.49441518E-01
  7.77461986E-03  2.89680522E-02  6.80460791E-16 -6.11955780E-17 -2.04417396E-01
  6.32827722E-17  8.75547991E-04  7.83540360E-16  1.91623055E-01 -1.72730171E-15
  3.82735400E-16 -4.00165996E-02 -3.70811259E-16  5.34806374E-02 -7.46496105E-16
 -1.80773237E-02 -1.13475609E-15  1.40363507E-16  1.45988532E-16  4.98853277E-03
  2.61507246E-02 -3.68865966E-02 -1.41277585E-02  7.53607242E-02 -1.05488699E-02
  7.77461986E-03  1.70316434E-16 -6.17329046E-01  2.85858227E-16 -3.99244705E-02
  6.59118408E-17  1.42391725E+00  2.26597977E-16 -1.15226659E-01  7.43671478E-03
 -1.53753525E-02 -1.08791045E-02  3.85652416E-02 -5.82704720E-02 -5.38899197E-16
 -3.57786543E-17  1.51062073E-15 -3.77028537E-02  3.31985676E-01 -1.93721186E-03
 -9.28508423E-02  1.30729183E-02 -1.71395333E-02 -1.69518501E-02  3.05848976E-16
  2.15432224E-02 -7.79335519E-01 -1.08407106E-03 -2.46753657E-16  1.56711694E-16
  1.61063557E-01  6.83611495E-16 -1.47964192E-02  1.90357881E-03  1.19358216E-02
 -1.40606250E-01  5.29503171E-16  3.99834949E+00 -8.16812889E-02  5.11784209E-17
 -1.88796809E-16  9.91223961E-02  2.74367726E-16  2.08433488E-01  1.03233933E-01
 -1.68515767E-02  1.47613277E-02 -9.98889406E-02  1.54396334E-01  1.60206882E-03
 -2.06232229E-16  1.79916382E-15 -8.18687956E-03 -2.18683744E-02 -2.95786931E-16
  7.67015692E-03  1.73890153E-03 -9.11397695E-16 -4.15022314E-16 -1.93721186E-03
  3.76725672E-02 -4.33689858E-03  2.70008704E-01 -1.41465471E-16 -1.09969020E-16
 -1.83362168E-16  5.34354099E-03 -2.44922368E-03  1.60051713E-16 -9.98889406E-02
  5.64189970E-03  9.84383337E-02  4.10560771E-02  3.39002739E-02  4.38386871E-03
  6.18948879E-03  1.38040031E-01 -3.85652416E-02 -1.07337741E-16  1.07869674E-16
  2.76985203E-16 -1.05892407E-01  6.57144178E-01 -2.41060255E-16 -1.79251792E-01
 -4.62757508E-03  7.08970076E-02 -1.43459005E-16 -6.89432619E-03 -8.65688891E-04
  2.84675587E-03  2.85550845E-02  2.42439264E-01  2.18683744E-02  1.53457010E-02
 -1.12649320E-16 -1.68515767E-02  1.98386220E-02 -2.17286604E-02 -3.75373752E-03
 -2.88006716E-02  1.19812120E-02  7.60012882E-16  1.93779870E-03  3.16753359E-03
 -3.77971286E-02  2.24681103E-01 -1.92908577E-01  5.66125205E-03  1.82540849E-02
 -3.03673158E-16 -5.38899197E-16  1.30729183E-02 -1.67930062E-02  1.69205369E-01
  3.75373752E-03  9.89452018E-02  9.75750189E-02  5.72321738E-16  1.61063557E-01
  7.08970076E-02 -3.96742068E-01 -3.95678029E-01 -1.81715751E-02 -1.42419725E-17
 -1.43459005E-16 -4.87008547E-16  1.12553628E+00 -4.65037782E-03 -1.58164031E-03
 -1.39640654E-01 -1.50705631E-03  9.85231376E-03  1.98487599E-15 -5.12787770E-01
  1.18129951E-01  2.08375356E-01  1.86398725E-01  7.80693958E-02 -1.11419942E-02
 -1.79082245E-02  2.47916370E-16  4.65037782E-03 -2.90162048E-16  2.59851692E-16
  4.84589940E-02  1.85332263E-15 -1.42419725E-17  2.05167227E-02  1.69205369E-01
 -1.17927793E-15 -1.71626040E-02 -1.39745656E-01 -2.19983396E-16  1.03233933E-01
 -5.34194756E-01 -1.72730171E-15 -9.81873611E-17  3.37474998E-02 -9.28508423E-02
  3.21927537E-02 -9.81873611E-17  5.33457575E-03  2.86497869E-02 -5.49441518E-01
  1.03657686E-15  1.96470410E-16  1.90867407E-02 -5.01911230E-16 -5.36354770E-02
 -1.40606250E-01  7.80693958E-02  8.66492648E-16  4.20986545E-04  5.33457575E-03
  1.27877068E-01  1.62613703E-03  1.58401751E-15  2.48959657E-16  4.90481350E-02
  1.47606888E-02 -1.58164031E-03  4.08710222E-01 -9.39869577E-03 -3.03673158E-16
 -5.15769420E-01  5.56824491E-03 -2.48713000E-02  6.18948879E-03  5.97715449E-02
  5.33952111E-04  2.39403184E-01  1.96251101E-03 -3.70066692E-02 -7.59472287E-02
 -2.04310380E-15 -1.63042072E-01  2.67196066E-02  5.21146129E-02  2.05434336E-02
 -3.27628373E-02 -9.53629603E-01  6.42861586E-02 -3.88130514E-02 -4.63930006E-02
 -8.17498764E-02  1.52344382E-01 -2.88006716E-02  7.59155534E-16  8.27987464E-03
 -1.80772299E-16  2.05434336E-02 -1.06308697E-01 -1.67273417E-01 -4.50287685E-17
 -1.35964707E-16  2.06678105E-02 -3.27628373E-02 -5.70903899E-02 -6.54109770E-03
 -7.54558128E-02  2.95840547E-01  1.26900759E-15  1.96470410E-16 -7.09607400E-02
  6.02538008E-03 -4.55713155E-03 -5.31754292E-16  1.97004080E-16  7.78005631E-02
  4.50473264E-17  3.89079463E-16 -2.47665939E-02  1.00989484E-03 -3.23519030E-16
 -2.29640266E-01  2.82480949E-02 -7.54689349E-03  2.37578852E+00  5.40965405E-03
 -1.35310978E-01  2.63938965E-02  8.53926670E-04  5.69282485E-18 -1.78866446E-01
  2.08433488E-01 -1.60297411E-01 -7.78005631E-02  6.50186412E-02 -2.97959359E-16
 -3.24875396E-01  1.17970082E+00 -6.89432619E-03 -2.31246824E-02  2.84675587E-03
  7.38627418E-04 -2.62810255E-16  1.70574590E+00  1.72511689E-01 -2.39989400E-16
  1.73696181E-01 -4.63930006E-02 -2.48713000E-02  2.95786501E-16 -5.23839580E-16
 -1.20809178E-18  2.72598366E+00  3.11481650E-01 -1.78866446E-01  4.46157760E-16
  6.61355464E-16  2.90817230E-01  2.53839744E-01 -1.09067793E-16  5.15948183E-16
  7.32648181E-16 -1.87254283E-01  1.98844808E-01 -2.61766480E-02 -7.84946388E-16
  9.77168353E-16 -2.54044545E-17 -9.02169364E-16 -1.58321351E-03  1.34413846E-16
 -1.29862301E-01  5.74689202E+00  7.82970503E-03 -1.67930062E-02 -2.17374019E-01
 -1.77112173E-01  2.25424595E-04 -7.57015629E-03  5.04800488E-04  1.28531129E-16
 -5.20295756E-16 -3.28858682E-01  1.27748515E-02  2.42581236E-02  3.48885876E-03
  1.78186700E-02 -2.99609236E-02 -2.17286604E-02 -1.31389924E-16  4.94725335E-02
  1.98386220E-02  8.47133561E-03 -1.14756545E-03  2.05167227E-02 -8.16618530E-17
  8.66492648E-16 -1.38246772E+00 -6.66793600E-16  3.11481650E-01  5.94960486E-04
 -1.34306540E-02  8.72093693E-16 -2.62182834E-16  3.74915948E-01  1.93779870E-03
  3.70440292E-16 -4.74324762E-16 -7.81679541E-02 -1.41178093E-01 -4.43140890E-16
  3.38464632E-01  1.49735344E+00 -2.65655701E-02 -2.10357012E-01 -2.02998968E-02
 -1.18978136E+00  2.42828686E-04 -1.35199828E-15  1.82183807E-02  2.74367726E-16
 -1.01861994E+00 -2.10365743E-16  3.75709768E-16  5.11784209E-17 -5.71759369E-04
 -3.55882706E-16  5.61612703E-03  7.44608807E-16  4.86251170E-04 -2.88485368E-16
 -2.46261586E-01  9.15439566E-03 -1.81614458E-02  1.27286263E-03 -5.42277606E-17
  4.90481350E-02  2.76081438E-02 -1.83853784E-01  3.21927537E-02  5.05629455E-16
  6.18677374E-02  3.93420521E-16 -7.95632078E-03 -8.52028156E-17 -2.14595317E-01
  5.69282485E-18 -1.10971792E-15 -8.79144357E-16 -3.28858682E-01 -4.82432514E-02
 -1.17366835E-04  3.72288986E-02 -7.53169491E-03 -2.73085760E-02 -5.37324871E-01
  9.01456529E-17 -1.71626040E-02 -2.24141161E-16 -2.05403049E-02  3.89079463E-16
 -5.31754292E-16 -1.62678991E-01 -2.47105657E-16  1.05486250E-02  3.60069427E-02
  1.02201018E+00  1.20684938E-16  5.86347889E-17 -2.90207054E-01  4.21725329E-02
  2.57101614E-16  8.31666467E-02 -3.78998254E-16 -2.04815738E-03  3.77787032E-03
 -1.24529832E-16 -5.15769420E-01  4.15644309E-16 -7.59472287E-02 -2.31246824E-02
  2.95786501E-16  8.58996876E-16  7.59155534E-16  3.76725672E-02 -7.64665620E-17
 -9.02169364E-16 -3.79610000E-03  3.76861013E-01  4.82895614E-02 -1.88796809E-16
 -4.76518981E-16  4.51645369E-02 -2.65478237E-16  1.91623055E-01  4.82895614E-02
 -6.11955780E-17  6.80171343E-17  7.30237282E-02 -3.26842964E-16 -2.90207054E-01
  2.25072552E-02 -1.71766375E-03  3.38464632E-01 -7.09607400E-02  3.93420521E-16
 -1.80773237E-02  8.37076522E-02  5.74063785E-02  1.59413143E-01 -8.52028156E-17
  1.61897077E-01  3.39002739E-02  2.78208734E-15  1.85996862E-01  7.08804556E-16
  1.33161341E-03  7.38627418E-04 -1.64071169E-01  6.44150047E-02  5.29503171E-16
 -8.37076522E-02  4.25410117E-03  3.62354051E-02 -3.23519030E-16  2.47916370E-16
  4.52115853E-17 -1.71395333E-02 -2.22586566E-03  5.64865947E-16 -4.07791960E-16
 -7.57015629E-03  6.19828914E-16  2.65655701E-02  3.95002439E-02  4.20437073E-16
 -3.07405761E-02 -1.49665402E-01 -1.06529551E+00  1.67138910E-02 -7.46496105E-16
  3.55962538E-02  1.56521695E-01  6.97926839E-17  3.74915948E-01 -8.76322355E-16
 -1.91643595E-16 -1.51324738E-02  4.52115853E-17  1.79082245E-02 -2.65478237E-16
 -2.98202371E-16 -1.29862301E-01  3.48885876E-03  2.44231526E-16  6.18677374E-02
  1.14302775E+00 -7.81679541E-02 -4.95104434E-02  1.71207386E-16 -5.70249105E-16
 -1.58321351E-03 -3.74474894E-16 -2.51540424E-04  8.72093693E-16  2.08152801E+00
  4.65953726E-03 -1.22527719E-01  5.04800488E-04 -9.23531171E-17 -5.77493408E-03
  1.78186700E-02 -8.58952209E-16 -7.74956861E-02 -7.50057656E-16  3.92869969E-02
  9.63036978E-16  1.34590208E-02  5.40965405E-03  6.99886949E-02 -1.48298368E-02
  5.50153359E-16  3.60069427E-02  8.63701820E-16 -3.46555948E-01 -6.24891441E-16
  4.11382057E-02 -1.14641551E-01 -2.19892188E-15 -1.38246772E+00  1.75126290E-02
  5.74063785E-02  1.53457010E-02 -9.92305707E-02  8.63235656E-03  1.70103601E-15
 -5.10593047E-01 -1.35199828E-15  1.49104780E+00 -6.81372581E-02 -2.02998968E-02
 -1.70191808E-15 -3.26842964E-16  1.14230507E+00  1.19738877E-02  2.57872169E-16
 -3.65110214E-01  3.12503947E-16  1.82506312E-01  1.82183807E-02  3.37474998E-02
 -1.01861994E+00 -1.97707444E-16 -5.17826052E-04 -2.44922368E-03  4.15644309E-16
  1.53203467E-01  3.51020098E-04 -8.04804202E-02 -5.34596729E-16  1.47613277E-02
  8.44521241E-03  1.49140973E-16 -2.57433702E-01 -9.11547504E-02 -2.41060255E-16
  2.57562133E-01 -2.97901092E-02  3.72288986E-02 -7.53169491E-03 -2.97959359E-16
 -5.93221827E-02  9.48840468E-02  1.34413846E-16  1.45286446E-01 -2.73856129E-01
 -3.99244705E-02 -1.28671908E-01 -1.98789432E-16 -1.30626764E-16 -6.17329046E-01
  5.22892748E-03 -2.99609236E-02 -2.22586566E-03  6.19828914E-16  1.11139096E-01
 -1.08933279E-02  1.63042072E-01  1.33005268E-16  2.49054198E-02 -1.18279557E-02
 -1.33177377E-15  1.20910161E-02  7.84379594E-02  1.87542683E-01  6.42861586E-02
 -8.79144357E-16  2.25473571E-01  1.91065798E-16  4.97512364E-16 -1.14756545E-03
  4.20437073E-16 -2.14785931E-03  2.92185120E-02  5.61612703E-03  1.62064532E-01
 -3.06180153E-16  2.49379350E-01 -3.79610000E-03  7.84379594E-02  1.75245279E-02
  6.18449998E-01 -1.85996862E-01 -5.20537207E-02 -1.81715751E-02 -2.90162048E-16
 -2.13902827E-04  1.55981483E-01  1.38438995E+00 -1.95958561E-01  4.07862588E-02
  7.51490231E-02  3.75709768E-16  7.33903860E-01 -3.76833076E-02  1.38244601E-01
 -4.67550500E-03 -1.61668345E-02  9.16903984E-03 -5.41794977E-16 -1.77225229E-02
  9.86367133E-17  1.55981483E-01 -4.55440449E-01 -1.54261610E-02 -7.75662667E-03
 -1.82211028E-15  4.10560771E-02 -1.61668345E-02  6.62943590E-02 -1.08236011E-01
 -2.93886424E-03  3.33231685E-03  4.15569637E-04  4.46157760E-16 -7.00013598E-16
  1.60051713E-16  2.68566625E-01 -4.25410117E-03  3.56720345E-01  1.33005268E-16
  2.07386267E+00 -3.24875396E-01 -9.11397695E-16  1.14230507E+00 -8.65688891E-04
  2.05507497E-04 -7.84137230E-02 -1.30284751E-16 -8.58952209E-16  1.68238335E-01
  1.38909740E-01 -2.73085760E-02  2.57232881E-03 -1.70191808E-15  6.33371752E-03
 -2.78911012E-02 -6.41095690E-02 -2.39605284E-02  6.80460791E-16  4.25863079E-16
  1.87288368E-02 -2.69388233E-01 -2.25624539E-01 -2.92591329E-16 -4.27808533E-16
 -2.25624539E-01 -5.53050854E-16  3.46555948E-01 -6.44150047E-02 -5.34596729E-16
  6.07071681E-16 -2.53839744E-01 -1.55386451E-01  1.71508457E-03  6.57144178E-01
 -4.25113831E-18 -4.40917925E-16 -2.26298811E-02 -7.84137230E-02  1.85332263E-15
 -2.87416276E-03  7.85728652E-17  1.70316434E-16 -1.52314454E-02 -1.98789432E-16
  8.66039643E-02  8.36740949E-02 -5.77493408E-03  4.70649115E-02 -1.14302775E+00
  5.12787770E-01  6.99886949E-02  1.94073691E-02  7.60012882E-16 -3.42569567E-16
 -1.27748515E-02 -1.08407106E-03  1.52314454E-02 -1.30284751E-16 -4.26812178E-02
  8.79415639E-17 -1.07633653E-02 -7.74956861E-02 -3.75187812E-17 -9.85231376E-03
  1.06866267E-02 -1.67273417E-01 -1.38244601E-01  1.10905127E-15 -1.06529551E+00
  9.35965172E-03  9.11974655E-03 -1.15161220E-01 -1.32950764E-15  1.18307037E-01
 -1.36714183E-02  1.98282233E-02  1.62613703E-03 -2.08375356E-01  9.67014096E-17
  1.39564777E-01  1.87288368E-02 -5.68329132E-16  1.06624888E-16  9.84383337E-02
 -2.19257646E-01 -1.54258733E-02  9.63036978E-16 -1.36714183E-02 -1.21025915E-16
 -3.78998254E-16 -2.51540424E-04  8.96040145E-02  7.81247874E-16  7.06760452E-17
 -6.39190910E-03 -2.62810255E-16 -6.66793600E-16  3.15724506E-02  4.11382057E-02
 -3.76833076E-02 -3.55882706E-16 -5.93221827E-02  1.72049144E-02 -7.54689349E-03
  2.21367980E-02  1.60090701E-15  3.80736437E-16  7.54248969E-04  4.15569637E-04
 -5.37324871E-01 -1.92258140E-02  1.51247208E-04  2.43662447E-03 -3.15169304E-04
  7.51932771E-16 -2.66782360E-16 -5.53050854E-16  4.98853277E-03 -1.55386451E-01
  8.10390028E-16  1.98282233E-02  1.39140047E-02 -1.39150141E-02  6.59118408E-17
  1.70418655E-16 -2.06232229E-16  1.28671908E-01 -2.92591329E-16  6.83611495E-16
 -2.04310380E-15  6.36279213E-02 -2.57232881E-03  4.33689858E-03 -6.54109770E-03
  1.97272472E-02 -1.39745656E-01 -1.54258733E-02  4.58484731E-01 -8.27987464E-03
 -1.14953965E-15 -4.08710222E-01  4.70090649E-03  1.45291481E-16  8.19676921E-02
  1.73890153E-03  3.12503947E-16 -3.69053885E-16  1.37816256E+00  2.59067814E-01
 -2.39673561E-16  1.81614458E-02  1.75245279E-02  5.43270172E-16 -4.34715973E-02
 -2.11882761E-16  1.08367324E-03  2.57562133E-01 -8.05649880E-16 -1.04458532E+00
  7.27998721E-16 -2.57433702E-01  1.28942399E-02  4.07766689E-01  6.55400077E-03
  1.41264227E+00 -1.21151158E-01  4.38386871E-03  1.72511689E-01  9.85374174E-02
  9.16903984E-03  2.71579044E-17  8.65604022E-02 -1.17927793E-15  5.70337459E-04
  8.68118088E-16  1.93439754E+00 -5.22892748E-03 -1.14953965E-15  1.49140973E-16
  2.95840547E-01  6.18449998E-01  9.47168063E-16  1.51247208E-04 -1.14641551E-01
 -2.20871574E-03 -2.58189652E-02 -9.39869577E-03 -3.11357573E-02  1.15226659E-01
  1.91799210E-01 -4.67550500E-03 -2.19313205E-01  2.64015645E-02 -1.77225229E-02
 -3.69053885E-16 -1.60263595E-01 -1.39150141E-02 -8.02002310E-02 -1.15161220E-01
 -3.65927608E-16  7.30237282E-02 -5.36833897E-02 -2.14627345E-02 -5.61014664E-02
  2.42828686E-04  4.51645369E-02  5.64865947E-16  8.01400685E-03 -2.62182834E-16
 -1.75640329E-01  1.54396334E-01  1.60263595E-01 -7.37674531E-16  1.34590208E-02
 -5.71759369E-04  4.38566564E-17  8.75547991E-04 -5.36833897E-02  2.57872169E-16
  1.51062073E-15 -1.38909740E-01  4.07862588E-02  8.40848228E-01  9.15439566E-03
  2.49379350E-01  2.06678105E-02  1.82540849E-02 -1.64071169E-01 -1.41465471E-16
 -8.53926670E-04 -5.17826052E-04 -1.18978136E+00 -1.91783042E-16 -3.16661695E-16
  1.60297411E-01  1.60090701E-15 -1.05892407E-01  1.96498651E-16  4.49778900E-02
  2.10725572E-02 -7.92298944E-17 -1.85637496E-01 -6.93273315E-16  4.92314924E-16
  7.67630401E-03 -1.01014723E-15 -1.91783042E-16 -8.17498764E-02 -1.26549940E-01
  4.97512364E-16  1.62146914E-02  9.11974655E-03  1.39564777E-01  2.18399600E-16
 -3.15169304E-04 -1.75640329E-01  1.35310978E-01  5.25285817E-02  1.32163911E+00
  1.08307080E-15
Overlap Matrix                             R   N=        1176
  1.00000000E+00  1.96307529E-01  1.00000000E+00  1.79606659E-01  8.00229492E-01
  1.00000000E+00  0.00000000E+00  0.00000000E+00  0.00000000E+00  1.00000000E+00
  2.35884754E-18 -4.42699183E-18 -1.82067770E-18  0.00000000E+00  1.00000000E+00
 -7.06061478E-17 -1.29325934E-16  0.00000000E+00  0.00000000E+00 -3.16720042E-34
  1.00000000E+00  0.00000000E+00  0.00000000E+00  0.00000000E+00  5.30759475E-01
  0.00000000E+00  0.00000000E+00  1.00000000E+00 -1.19761743E-19  2.31610607E-18
  2.70130238E-18  0.00000000E+00  5.30759475E-01  0.00000000E+00  0.00000000E+00
  1.00000000E+00  2.22716432E-17 -9.50961157E-18  0.00000000E+00  0.00000000E+00
  0.00000000E+00  5.30759475E-01  0.00000000E+00  0.00000000E+00  1.00000000E+00
  0.00000000E+00  0.00000000E+00  0.00000000E+00  0.00000000E+00  0.00000000E+00
 -2.89161855E-16  0.00000000E+00  1.82722741E-18  0.00000000E+00  1.00000000E+00
  0.00000000E+00  0.00000000E+00  0.00000000E+00 -2.50421513E-16  0.00000000E+00
  0.00000000E+00  0.00000000E+00  0.00000000E+00  0.00000000E+00  0.00000000E+00
  1.00000000E+00 -9.18852072E-38 -1.86628870E-33  0.00000000E+00  0.00000000E+00
 -2.50421513E-16  0.00000000E+00  0.00000000E+00  0.00000000E+00 -3.16485070E-18
  0.00000000E+00  0.00000000E+00  1.00000000E+00  9.09697392E-19  2.12425624E-17
 -5.48341252E-17  0.00000000E+00  0.00000000E+00 -1.09376296E-32  0.00000000E+00
  3.16485070E-18  0.00000000E+00 -4.95805605E-18  0.00000000E+00  0.00000000E+00
  1.00000000E+00  0.00000000E+00  0.00000000E+00  0.00000000E+00  0.00000000E+00
  0.00000000E+00  0.00000000E+00 -3.16485070E-18  0.00000000E+00  0.00000000E+00
  0.00000000E+00  0.00000000E+00  0.00000000E+00  0.00000000E+00  1.00000000E+00
  2.71448191E-07  9.63203259E-03  3.92022405E-02  0.00000000E+00  1.29885022E-03
 -2.15101653E-02  0.00000000E+00  4.85060799E-03 -8.03305711E-02  5.84409760E-02
  0.00000000E+00 -6.12330480E-03 -1.84872028E-04  0.00000000E+00  1.00000000E+00
  2.07743180E-03  9.70306597E-02  2.26243136E-01  0.00000000E+00  1.00452886E-02
 -1.66359304E-01  0.00000000E+00  2.45772975E-02 -4.07022862E-01  2.97382402E-01
  0.00000000E+00 -3.11590123E-02 -9.40738701E-04  0.00000000E+00  2.14476014E-01
  1.00000000E+00  3.84372435E-02  2.61222880E-01  4.47290779E-01  0.00000000E+00
  1.70646469E-02 -2.82606394E-01  0.00000000E+00  3.73901654E-02 -6.19215847E-01
  2.66004488E-01  0.00000000E+00 -2.78713100E-02 -8.41477889E-04  0.00000000E+00
  1.83816867E-01  7.92109402E-01  1.00000000E+00  0.00000000E+00  0.00000000E+00
  0.00000000E+00  4.54449170E-02  0.00000000E+00  0.00000000E+00  1.17222215E-01
  0.00000000E+00  0.00000000E+00  0.00000000E+00 -1.49594846E-01  0.00000000E+00
  0.00000000E+00  9.03299882E-03  0.00000000E+00  0.00000000E+00  0.00000000E+00
  1.00000000E+00 -3.11704060E-04 -7.60372987E-03 -7.49918409E-03  0.00000000E+00
  4.45693109E-02  1.45008486E-02  0.00000000E+00  1.16426658E-01  1.31751584E-02
 -3.21809273E-02  0.00000000E+00 -1.46769442E-01 -8.94769553E-03  0.00000000E+00
 -5.14690156E-18 -4.22469208E-17 -3.01517971E-17  0.00000000E+00  1.00000000E+00
  5.16210859E-03  1.25924825E-01  1.24193450E-01  0.00000000E+00  1.45008486E-02
 -1.94702597E-01  0.00000000E+00  1.31751584E-02 -1.00970639E-01  2.73840155E-01
  0.00000000E+00 -3.77583067E-02 -1.41270177E-03  0.00000000E+00  8.38070576E-17
  5.24162056E-18  0.00000000E+00  0.00000000E+00 -5.71158325E-33  1.00000000E+00
  0.00000000E+00  0.00000000E+00  0.00000000E+00  2.04007791E-01  0.00000000E+00
  0.00000000E+00  4.52811174E-01  0.00000000E+00  0.00000000E+00  0.00000000E+00
 -3.12995352E-01  0.00000000E+00  0.00000000E+00  1.88996260E-02  0.00000000E+00
  0.00000000E+00  0.00000000E+00  5.01271483E-01  0.00000000E+00  0.00000000E+00
  1.00000000E+00 -6.70396075E-03 -2.95650285E-02 -2.86703090E-02  0.00000000E+00
  2.02052280E-01  3.23850808E-02  0.00000000E+00  4.50564440E-01  3.72080002E-02
 -3.87150541E-02  0.00000000E+00 -3.10082183E-01 -1.88116730E-02  0.00000000E+00
  2.35278166E-18 -9.43958158E-19 -2.90784214E-17  0.00000000E+00  5.01271483E-01
 -7.17834461E-33  0.00000000E+00  1.00000000E+00  1.11023813E-01  4.89624316E-01
  4.74806932E-01  0.00000000E+00  3.23850808E-02 -3.32319210E-01  0.00000000E+00
  3.72080002E-02 -1.63387850E-01  9.90333838E-02  0.00000000E+00 -2.93451417E-02
 -1.45658404E-03  0.00000000E+00 -1.34600929E-17  7.28919002E-18  0.00000000E+00
  0.00000000E+00 -7.17834461E-33  5.01271483E-01  0.00000000E+00  0.00000000E+00
  1.00000000E+00  1.05691269E-02  1.33915886E-01  5.21698760E-02  0.00000000E+00
  2.05069215E-02 -1.83407137E-01  0.00000000E+00  8.16607164E-03  6.23693327E-03
  1.74834290E-01  0.00000000E+00 -4.33713354E-02 -2.24097496E-03  0.00000000E+00
  0.00000000E+00  0.00000000E+00  0.00000000E+00  0.00000000E+00 -3.38037171E-17
 -4.11761758E-16  0.00000000E+00  0.00000000E+00  0.00000000E+00  1.00000000E+00
  0.00000000E+00  0.00000000E+00  0.00000000E+00  9.01858759E-02  0.00000000E+00
  0.00000000E+00  8.16804331E-02  0.00000000E+00  0.00000000E+00  0.00000000E+00