[Molden Format]
[Title]
 TDDFT/TDA Dyson orbitals

[Atoms] AU
C       1     6        0.0000000000       -0.0278298077        1.3522902800
O       2     8        0.0000000000        0.1314351760       -1.2852857000
H       3     1        0.0000000000        1.9110314600        2.1498662000
H       4     1        0.0000000000       -1.6374837800       -1.9077845400
H       5     1        1.7293239000       -1.0141188800        2.0226592900
H       6     1       -1.7293239000       -1.0141188800        2.0226592900
[GTO]
   1 0
s    7 1.0
     6665.0000000000        0.3645994407
     1000.0000000000        0.6769766940
      228.0000000000        1.1347958634
       64.7100000000        1.6584653664
       21.0600000000        1.9303634345
        7.4950000000        1.4562924080
        2.7970000000        0.4432682191
s    7 1.0
     6665.0000000000        0.0003278165
     1000.0000000000       -0.0069519109
       64.7100000000       -0.0590485205
       21.0600000000       -0.0826658278
        7.4950000000       -0.3580627265
        2.7970000000       -0.2076984320
        0.5215000000        0.4818781481
s    1 1.0
        0.1596000000        0.1799636353
p    3 1.0
        9.4390000000        1.3437371097
        2.0020000000        1.0631680896
        0.5456000000        0.5082318340
p    1 1.0
        0.1517000000        0.1349497436
d    1 1.0
        0.5500000000        1.0013935509

   2 0
s    7 1.0
    11720.0000000000        0.5714791427
     1759.0000000000        1.0618229363
      400.8000000000        1.7818229224
      113.7000000000        2.6089776415
       37.0300000000        3.0384180052
       13.2700000000        2.2381455607
        5.0250000000        0.6535152869
s    7 1.0
    11720.0000000000       -0.0002516257
     1759.0000000000       -0.0119567373
      113.7000000000       -0.1031662888
       37.0300000000       -0.1508506387
       13.2700000000       -0.6250444231
        5.0250000000       -0.2621986900
        1.0130000000        0.7906634949
s    1 1.0
        0.3023000000        0.2905619240
p    3 1.0
       17.7000000000        3.2436193465
        3.8540000000        2.5672796533
        1.0460000000        1.1176693238
p    1 1.0
        0.2753000000        0.2842482844
d    1 1.0
        1.1850000000        3.8368709885

   3 0
s    3 1.0
       13.0100000000        0.1635484228
        1.9620000000        0.2774175415
        0.4446000000        0.3157493070
s    1 1.0
        0.1220000000        0.1471227944
p    1 1.0
        0.7270000000        0.9568813751

   4 0
s    3 1.0
       13.0100000000        0.1635484228
        1.9620000000        0.2774175415
        0.4446000000        0.3157493070
s    1 1.0
        0.1220000000        0.1471227944
p    1 1.0
        0.7270000000        0.9568813751

   5 0
s    3 1.0
       13.0100000000        0.1635484228
        1.9620000000        0.2774175415
        0.4446000000        0.3157493070
s    1 1.0
        0.1220000000        0.1471227944
p    1 1.0
        0.7270000000        0.9568813751

   6 0
s    3 1.0
       13.0100000000        0.1635484228
        1.9620000000        0.2774175415
        0.4446000000        0.3157493070
s    1 1.0
        0.1220000000        0.1471227944
p    1 1.0
        0.7270000000        0.9568813751

[5D]
[MO]
 Sym= Dyson_0
 Ene=  3.896668500000E-01
 Spin= Beta
 Occup= 0.954193
    1     -0.000000000000
    2      0.000000000000
    3     -0.000000000000
    4      0.203234419754
    5      0.000000000000
    6     -0.000000000000
    7      0.041906750774
    8     -0.000000000000
    9      0.000000000000
   10     -0.000000000000
   11      0.038423295797
   12      0.000000000000
   13      0.000000000000
   14     -0.011051945986
   15      0.000000000000
   16     -0.000000000000
   17     -0.000000000000
   18     -0.553135120057
   19     -0.000000000000
   20      0.000000000000
   21     -0.429717458684
   22     -0.000000000000
   23      0.000000000000
   24      0.000000000000
   25     -0.004931908604
   26     -0.000000000000
   27     -0.000000000000
   28      0.012300376307
   29      0.000000000000
   30      0.000000000000
   31      0.008988770225
   32     -0.000000000000
   33     -0.000000000000
   34      0.000000000000
   35      0.000000000000
   36     -0.028500435709
   37     -0.000000000000
   38     -0.000000000000
   39      0.215497789920
   40      0.135913341837
   41     -0.002822025709
   42      0.006004640804
   43     -0.001915334796
   44     -0.215497789920
   45     -0.135913341837
   46     -0.002822025709
   47     -0.006004640804
   48      0.001915334796
 Sym= Dyson_1
 Ene=  4.533093261438E-01
 Spin= Beta
 Occup= 0.954368
    1     -0.010835278115
    2      0.033841141029
    3     -0.011502945815
    4     -0.000000000000
    5      0.316677387793
    6     -0.085962668293
    7      0.000000000000
    8      0.098662144006
    9      0.002668388105
   10      0.006815832954
   11     -0.000000000000
   12      0.028964107779
   13     -0.012707059177
   14      0.000000000000
   15      0.047820496236
   16     -0.101736753758
   17     -0.217681960873
   18      0.000000000000
   19     -0.349478841311
   20      0.167475505195
   21      0.000000000000
   22     -0.225849298649
   23      0.146443326676
   24     -0.000367857496
   25      0.000000000000
   26     -0.001435606360
   27     -0.010821932520
   28     -0.000000000000
   29      0.284288144181
   30      0.137862709391
   31     -0.000000000000
   32     -0.006910286318
   33     -0.009231494518
   34      0.205806044599
   35      0.061867154113
   36      0.000000000000
   37      0.006877496130
   38      0.014058869697
   39     -0.160764420589
   40     -0.098497408170
   41      0.010235613060
   42      0.006985515032
   43     -0.000064531441
   44     -0.160764420589
   45     -0.098497408170
   46     -0.010235613060
   47      0.006985515032
   48     -0.000064531441
 Sym= Dyson_2
 Ene=  5.440617772566E-01
 Spin= Beta
 Occup= 0.952696
    1     -0.001851675387
    2     -0.004644799930
    3      0.003635719176
    4     -0.000000000000
    5      0.241424480575
    6      0.296026487623
    7     -0.000000000000
    8      0.128329079262
    9      0.104113592424
   10     -0.026140366063
   11      0.000000000000
   12     -0.005347790608
   13     -0.005976587461
   14      0.000000000000
   15     -0.034594368047
   16      0.069550579466
   17      0.151950168529
   18     -0.000000000000
   19      0.166329078538
   20     -0.366987325521
   21     -0.000000000000
   22      0.118616420230
   23     -0.217115844624
   24     -0.007309859349
   25     -0.000000000000
   26      0.018351201982
   27      0.002665814480
   28      0.000000000000
   29      0.264163933875
   30      0.083438505291
   31     -0.000000000000
   32     -0.015013610195
   33     -0.000202781848
   34      0.024971646636
   35      0.042013183360
   36     -0.000000000000
   37      0.009544748527
   38     -0.019986937901
   39     -0.009374707134
   40      0.006701421912
   41      0.000745287327
   42      0.006086057514
   43      0.007144889758
   44     -0.009374707134
   45      0.006701421912
   46     -0.000745287327
   47      0.006086057514
   48      0.007144889758
 Sym= Dyson_3
 Ene=  5.841185384280E-01
 Spin= Beta
 Occup= 0.912649
    1      0.000000000000
    2     -0.000000000000
    3     -0.000000000000
    4     -0.385432047605
    5     -0.000000000000
    6     -0.000000000000
    7     -0.154720043703
    8     -0.000000000000
    9     -0.000000000000
   10      0.000000000000
   11      0.009755585800
   12     -0.000000000000
   13      0.000000000000
   14      0.012459462080
   15      0.000000000000
   16     -0.000000000000
   17     -0.000000000000
   18     -0.270209277104
   19     -0.000000000000
   20      0.000000000000
   21     -0.177510273210
   22     -0.000000000000
   23      0.000000000000
   24      0.000000000000
   25     -0.013004834990
   26     -0.000000000000
   27      0.000000000000
   28      0.007544105434
   29     -0.000000000000
   30     -0.000000000000
   31     -0.012735168202
   32      0.000000000000
   33     -0.000000000000
   34     -0.000000000000
   35     -0.000000000000
   36     -0.013605127793
   37     -0.000000000000
   38      0.000000000000
   39     -0.244862658435
   40     -0.092623893286
   41      0.006275759995
   42     -0.009938661957
   43      0.005923387031
   44      0.244862658434
   45      0.092623893286
   46      0.006275759995
   47      0.009938661957
   48     -0.005923387031
 Sym= Dyson_4
 Ene=  6.344504100798E-01
 Spin= Beta
 Occup= 0.947794
    1     -0.023526727873
    2      0.045376329436
    3      0.032196997230
    4      0.000000000000
    5     -0.194132335291
    6      0.214083293124
    7     -0.000000000000
    8     -0.092907161296
    9      0.082000470969
   10     -0.022865758646
   11      0.000000000000
   12      0.021765750660
   13      0.003753873554
   14     -0.000000000000
   15      0.037201280433
   16     -0.086250035878
   17     -0.148739875366
   18     -0.000000000000
   19     -0.343400660874
   20     -0.230016256583
   21     -0.000000000000
   22     -0.163107539373
   23     -0.089458461072
   24     -0.012441133500
   25     -0.000000000000
   26     -0.002557834395
   27     -0.010078080478
   28      0.000000000000
   29     -0.028116358130
   30      0.001618633330
   31      0.000000000000
   32     -0.000282341903
   33      0.004556233371
   34      0.292801740737
   35      0.082219751259
   36     -0.000000000000
   37      0.025087544841
   38      0.010676945228
   39      0.141821166107
   40      0.035462160101
   41     -0.011274514658
   42      0.000902029424
   43      0.000916881764
   44      0.141821166107
   45      0.035462160101
   46      0.011274514658
   47      0.000902029424
   48      0.000916881764
 Sym= Dyson_5
 Ene=  7.776110695473E-01
 Spin= Beta
 Occup= 0.000003
    1     -0.000000000000
    2      0.000000000000
    3      0.000000000000
    4     -0.000268349887
    5      0.000000000000
    6      0.000000000000
    7     -0.000040512188
    8      0.000000000000
    9      0.000000000000
   10     -0.000000000000
   11     -0.000067009087
   12      0.000000000000
   13     -0.000000000000
   14      0.000016267326
   15      0.000000000000
   16     -0.000000000000
   17     -0.000000000000
   18      0.000990212695
   19     -0.000000000000
   20     -0.000000000000
   21      0.000762888821
   22     -0.000000000000
   23      0.000000000000
   24     -0.000000000000
   25      0.000010916087
   26     -0.000000000000
   27     -0.000000000000
   28     -0.000022322335
   29      0.000000000000
   30      0.000000000000
   31     -0.000012718084
   32     -0.000000000000
   33     -0.000000000000
   34      0.000000000000
   35      0.000000000000
   36      0.000050958440
   37      0.000000000000
   38      0.000000000000
   39     -0.000316812303
   40     -0.000211986904
   41      0.000003544222
   42     -0.000008213937
   43      0.000002077734
   44      0.000316812303
   45      0.000211986904
   46      0.000003544222
   47      0.000008213937
   48     -0.000002077734
 Sym= Dyson_6
 Ene=  7.998333846669E-01
 Spin= Beta
 Occup= 0.001419
    1      0.000000000000
    2     -0.000000000000
    3     -0.000000000000
    4     -0.004600975937
    5      0.000000000000
    6     -0.000000000000
    7     -0.002986923908
    8      0.000000000000
    9     -0.000000000000
   10      0.000000000000
   11      0.001368277595
   12      0.000000000000
   13     -0.000000000000
   14      0.000019943625
   15      0.000000000000
   16     -0.000000000000
   17     -0.000000000000
   18     -0.023212666286
   19     -0.000000000000
   20      0.000000000000
   21     -0.017155479389
   22     -0.000000000000
   23      0.000000000000
   24      0.000000000000
   25     -0.000493982010
   26     -0.000000000000
   27     -0.000000000000
   28      0.000557781350
   29      0.000000000000
   30      0.000000000000
   31     -0.000086693310
   32     -0.000000000000
   33     -0.000000000000
   34      0.000000000000
   35      0.000000000000
   36     -0.001187439075
   37      0.000000000000
   38      0.000000000000
   39     -0.000440888374
   40      0.001396226657
   41      0.000088911377
   42     -0.000096685191
   43      0.000105418374
   44      0.000440888374
   45     -0.001396226657
   46      0.000088911377
   47      0.000096685191
   48     -0.000105418374
