                  Welcome to Q-Chem
     A Quantum Leap Into The Future Of Chemistry


 Q-Chem 6.2 (devel), Q-Chem, Inc., Pleasanton, CA (2024)

 E. Epifanovsky,  A. T. B. Gilbert,  Xintian Feng,  Joonho Lee,  Yuezhi Mao,  
 N. Mardirossian,  P. Pokhilko,  A. White,  M. Wormit,  M. P. Coons,  
 A. L. Dempwolff,  Zhengting Gan,  D. Hait,  P. R. Horn,  L. D. Jacobson,  
 I. Kaliman,  J. Kussmann,  A. W. Lange,  Ka Un Lao,  D. S. Levine,  Jie Liu,  
 S. C. McKenzie,  A. F. Morrison,  K. D. Nanda,  F. Plasser,  D. R. Rehn,  
 M. L. Vidal,  Zhi-Qiang You,  Ying Zhu,  Huseyin Aksu,  B. Alam,  
 B. Albrecht,  A. Aldossary,  E. Alguire,  J. H. Andersen,  
 J. E. Arias-Martinez,  V. Athavale,  D. Barton,  K. Begam,  A. Behn,  
 N. Bellonzi,  Y. A. Bernard,  E. J. Berquist,  H. Burton,  A. Carreras,  
 K. Carter-Fenk,  Mathew Chow,  Romit Chakraborty,  Chandrima Chakravarty,  
 Junhan Chen,  A. D. Chien,  K. D. Closser,  V. Cofer-Shabica,  L. Cunha,  
 S. Dasgupta,  Jia Deng,  Joseph Dickinson,  M. de Wergifosse,  
 M. Diedenhofen,  Hainam Do,  Wenjie Dou,  S. Ehlert,  Po-Tung Fang,  
 S. Fatehi,  Qingguo Feng,  Jonathan Fetherolf,  T. Friedhoff,  
 Thomas Froitzheim,  Sarai Folkestad,  B. Ganoe,  J. Gayvert,  Qinghui Ge,  
 G. Gidofalvi,  M. Gimferrer,  M. Goldey,  Montgomery Gray,  J. Gomes,  
 C. Gonzalez-Espinoza,  S. Gulania,  A. Gunina,  J. A. Gyamfi,  
 M. W. D. Hanson-Heine,  P. H. P. Harbach,  A. W. Hauser,  M. F. Herbst,  
 M. Hernandez Vera,  M. Hodecker,  Z. C. Holden,  S. Houck,  Xunkun Huang,  
 Kerwin Hui,  B. C. Huynh,  K. Ikeda,  M. Ivanov,  Nayanthara K. Jayadev,  
 Hyunjun Ji,  Zuxin Jin,  Hanjie Jiang,  Subrata Jana,  B. Kaduk,  
 S. Kaehler,  R. Kang,  K. Khistyaev,  Jaehoon Kim,  Yongbin Kim,  
 P. Klunzinger,  Z. Koczor-Benda,  Joong Hoon Koh,  D. Kosenkov,  
 Saikiran Kotaru,  L. Koulias,  T. Kowalczyk,  C. M. Krauter,  K. Kue,  
 A. Kunitsa,  T. Kus,  A. Landau,  K. V. Lawler,  D. Lefrancois,  S. Lehtola,  
 Rain Li,  Shaozhi Li,  Tao E. Li,  Yi-Pei Li,  Jiashu Liang,  M. Liebenthal,  
 Hung-Hsuan Lin,  You-Sheng Lin,  Fenglai Liu,  Kuan-Yu Liu,  Xiao Liu,  
 M. Loipersberger,  A. Luenser,  C. Malbon,  Aniket Mandal,  Manisha,  
 A. Manjanath,  P. Manohar,  E. Mansoor,  S. F. Manzer,  Shan-Ping Mao,  
 A. V. Marenich,  T. Markovich,  S. Mason,  F. Matz,  S. A. Maurer,  
 Samuel May,  Alexandra McIsaac,  P. F. McLaughlin,  M. F. S. J. Menger,  
 J.-M. Mewes,  S. A. Mewes,  P. Morgante,  Mohammad Mostafanejad,  
 Madhubani Mukherjee,  J. W. Mullinax,  Quyen Nguyen,  Avik Kumar Ojha,  
 K. J. Oosterbaan,  Eno Paenurk,  Xiaoliang Pan,  G. Paran,  V. Parravicini,  
 Alexander C. Paul,  Suranjan K. Paul,  F. Pavosevic,  Zheng Pei,  S. Prager,  
 E. I. Proynov,  E. Ramos,  B. Rana,  A. E. Rask,  A. Rettig,  R. M. Richard,  
 F. Rob,  E. Rossomme,  T. Scheele,  M. Scheurer,  M. Schneider,  
 P. E. Schneider,  Tim K. Schramm,  N. Sergueev,  S. M. Sharada,  
 Hengyuan Shen,  W. Skomorowski,  D. W. Small,  C. J. Stein,  
 Alistair J. Sterling,  Yingli Su,  Yu-Chuan Su,  E. J. Sundstrom,  
 J. Talbot,  Zhen Tao,  J. Thirman,  Hung-Yi Tsai,  T. Tsuchimochi,  
 N. M. Tubman,  C. Utku,  S. P. Veccham,  O. Vydrov,  Rahel Weiss,  
 J. Wenzel,  Jonathan Wong,  J. Witte,  H. Wu,  Yanze Wu,  A. Yamada,  
 Chou-Hsun Yang,  Kun Yao,  S. Yeganeh,  S. R. Yost,  Qi Yu,  A. Zech,  
 F. Zeller,  Chongxiao Zhao,  Igor Ying Zhang,  Xing Zhang,  Yu Zhang,  
 D. Zuev,  A. Aspuru-Guzik,  A. T. Bell,  N. A. Besley,  K. B. Bravaya,  
 B. R. Brooks,  D. Casanova,  Jeng-Da Chai,  Hsing-Ta Chen,  S. Coriani,  
 C. J. Cramer,  A. E. DePrince, III,  R. A. DiStasio Jr.,  A. Dreuw,  
 B. D. Dunietz,  T. R. Furlani,  W. A. Goddard III,  S. Grimme,  
 S. Hammes-Schiffer,  T. Head-Gordon,  W. J. Hehre,  Chao-Ping Hsu,  
 T.-C. Jagau,  Yousung Jung,  A. Klamt,  Jing Kong,  D. S. Lambrecht,  
 Xiangyuan Li,  WanZhen Liang,  N. J. Mayhall,  C. W. McCurdy,  J. B. Neaton,  
 T. Neudecker,  C. Ochsenfeld,  J. A. Parkhill,  R. Peverati,  
 V. A. Rassolov,  Haisheng Ren,  Yihan Shao,  L. V. Slipchenko,  
 R. P. Steele,  J. E. Subotnik,  A. J. W. Thom,  A. Tkatchenko,  
 D. G. Truhlar,  T. Van Voorhis,  Fan Wang,  T. A. Wesolowski,  K. B. Whaley,  
 H. L. Woodcock III,  P. M. Zimmerman,  S. Faraji,  P. M. W. Gill,  
 M. Head-Gordon,  J. M. Herbert,  A. I. Krylov

 Contributors to earlier versions of Q-Chem not listed above: 
 R. D. Adamson,  B. Austin,  R. Baer,  J. Baker,  G. J. O. Beran,  
 K. Brandhorst,  S. T. Brown,  E. F. C. Byrd,  Arup K. Chakraborty,  
 G. K. L. Chan,  Chun-Min Chang,  Yunqing Chen,  C.-L. Cheng,  
 Siu Hung Chien,  D. M. Chipman,  D. L. Crittenden,  H. Dachsel,  
 R. J. Doerksen,  A. D. Dutoi,  R. G. Edgar,  J. Fosso-Tande,  
 L. Fusti-Molnar,  D. Ghosh,  A. Ghysels,  A. Golubeva-Zadorozhnaya,  
 J. Gonthier,  M. S. Gordon,  S. R. Gwaltney,  G. Hawkins,  J. E. Herr,  
 A. Heyden,  S. Hirata,  E. G. Hohenstein,  G. Kedziora,  F. J. Keil,  
 C. Kelley,  Jihan Kim,  R. A. King,  R. Z. Khaliullin,  P. P. Korambath,  
 W. Kurlancheek,  A. Laurent,  A. M. Lee,  M. S. Lee,  S. V. Levchenko,  
 Ching Yeh Lin,  D. Liotard,  E. Livshits,  R. C. Lochan,  I. Lotan,  
 L. A. Martinez-Martinez,  P. E. Maslen,  N. Nair,  D. P. O'Neill,  
 D. Neuhauser,  E. Neuscamman,  C. M. Oana,  R. Olivares-Amaya,  R. Olson,  
 T. M. Perrine,  B. Peters,  P. A. Pieniazek,  A. Prociuk,  Y. M. Rhee,  
 J. Ritchie,  M. A. Rohrdanz,  E. Rosta,  N. J. Russ,  H. F. Schaefer III,  
 M. W. Schmidt,  N. E. Schultz,  S. Sharma,  N. Shenvi,  C. D. Sherrill,  
 A. C. Simmonett,  A. Sodt,  T. Stein,  D. Stuck,  K. S. Thanthiriwatte,  
 V. Vanovschi,  L. Vogt,  Tao Wang,  A. Warshel,  M. A. Watson,  
 C. F. Williams,  Q. Wu,  X. Xu,  Jun Yang,  W. Zhang,  Yan Zhao

   Please cite Q-Chem as follows:
  "Software for the frontiers of quantum chemistry:
   An overview of developments in the Q-Chem 5 package"
   J. Chem. Phys. 155, 084801 (2021)
   https://doi.org/10.1063/5.0055522 (open access)

 Q-Chem 6.2.1 for Intel X86 EM64T Linux

 Parts of Q-Chem use Armadillo 9.900.5 (Nocturnal Misbehaviour).
 http://arma.sourceforge.net/

 Q-Chem begins on Mon Jul  6 15:18:40 2026  

 Host: 
0

     Scratch files written to /media/HDD1/guest/qcscratch/qchem1082871//
 Processing $rem in /media/HDD1/qchem/qc621/config/preferences:
 Processing $rem in /home/guest/.qchemrc:

 Checking the input file for inconsistencies... 	...done.

 Q-Chem warning in module forms1/BasisType.C, line 2998:

 You are not using the predefined 5D/6D in this basis set.


--------------------------------------------------------------
User input:
--------------------------------------------------------------
$molecule
1 2
  C    0.0000000   -0.0147269    0.7156012
  O    0.0000000    0.0695525   -0.6801439
  H    0.0000000    1.0112743    1.1376602
  H    0.0000000   -0.8665191   -1.0095561
  H    0.9151188   -0.5366486    1.0703452
  H   -0.9151188   -0.5366486    1.0703452
$end

$rem
MAX_SCF_CYCLES 2000
SCF_ALGORITHM DIIS_GDM
method wb97x-d3
basis cc-pvdz
CIS_N_ROOTS 6
sym_ignore true
symmetry false
PRINT_GENERAL_BASIS = TRUE
purecart 111
CIS_AMPL_ANAL True
CIS_AMPL_PRINT 1
GUI 2
PRINT_ORBITALS 1000000000
$end

--------------------------------------------------------------
 Adding empirical dispersion correction 
 ----------------------------------------------------------------
 Doing -D3(0) with
 s6  =   1.00000
 s8  =   1.00000
 rs6 =   1.28100
 rs8 =   1.09400
 ----------------------------------------------------------------
 -D3 energy without 3body term =     -0.0002283694 hartrees
 ----------------------------------------------------------------
             Standard Nuclear Orientation (Angstroms)
    I     Atom           X                Y                Z
 ----------------------------------------------------------------
    1      C       0.0000000000    -0.0147269000     0.7156012000
    2      O       0.0000000000     0.0695525000    -0.6801439000
    3      H       0.0000000000     1.0112743000     1.1376602000
    4      H       0.0000000000    -0.8665191000    -1.0095561000
    5      H       0.9151188000    -0.5366486000     1.0703452000
    6      H      -0.9151188000    -0.5366486000     1.0703452000
 ----------------------------------------------------------------
 Nuclear Repulsion Energy =          40.34537224 hartrees
 There are        9 alpha and        8 beta electrons
 Requested basis set is cc-pVDZ
 Basis set in general basis input format:
-----------------------------------------------------------------------
$basis
C    0
S    7    1.000000
   6.66500000E+03    6.91990000E-04 
   1.00000000E+03    5.32976000E-03 
   2.28000000E+02    2.70770000E-02 
   6.47100000E+01    1.01768130E-01 
   2.10600000E+01    2.74902850E-01 
   7.49500000E+00    4.50094590E-01 
   2.79700000E+00    2.86933450E-01 
S    7    1.000000
   6.66500000E+03    3.10000000E-07 
   1.00000000E+03   -2.72700000E-05 
   6.47100000E+01   -1.80535000E-03 
   2.10600000E+01   -5.86561000E-03 
   7.49500000E+00   -5.51393100E-02 
   2.79700000E+00   -6.69876600E-02 
   5.21500000E-01    5.47743760E-01 
S    1    1.000000
   1.59600000E-01    1.00000000E+00 
P    3    1.000000
   9.43900000E+00    3.81090000E-02 
   2.00200000E+00    2.09480000E-01 
   5.45600000E-01    5.08557000E-01 
P    1    1.000000
   1.51700000E-01    1.00000000E+00 
D    1    1.000000
   5.50000000E-01    1.00000000E+00 
****
O    0
S    7    1.000000
   1.17200000E+04    7.10000000E-04 
   1.75900000E+03    5.47087000E-03 
   4.00800000E+02    2.78370000E-02 
   1.13700000E+02    1.04858510E-01 
   3.70300000E+01    2.83260430E-01 
   1.32700000E+01    4.50493790E-01 
   5.02500000E+00    2.72494270E-01 
S    7    1.000000
   1.17200000E+04   -1.60000000E-07 
   1.75900000E+03   -3.15300000E-05 
   1.13700000E+02   -2.12216000E-03 
   3.70300000E+01   -7.19768000E-03 
   1.32700000E+01   -6.43899900E-02 
   5.02500000E+00   -5.59550300E-02 
   1.01300000E+00    5.60848120E-01 
S    1    1.000000
   3.02300000E-01    1.00000000E+00 
P    3    1.000000
   1.77000000E+01    4.30180000E-02 
   3.85400000E+00    2.28913000E-01 
   1.04600000E+00    5.08728000E-01 
P    1    1.000000
   2.75300000E-01    1.00000000E+00 
D    1    1.000000
   1.18500000E+00    1.00000000E+00 
****
H    0
S    3    1.000000
   1.30100000E+01    1.96850000E-02 
   1.96200000E+00    1.37977000E-01 
   4.44600000E-01    4.78148000E-01 
S    1    1.000000
   1.22000000E-01    1.00000000E+00 
P    1    1.000000
   7.27000000E-01    1.00000000E+00 
****
H    0
S    3    1.000000
   1.30100000E+01    1.96850000E-02 
   1.96200000E+00    1.37977000E-01 
   4.44600000E-01    4.78148000E-01 
S    1    1.000000
   1.22000000E-01    1.00000000E+00 
P    1    1.000000
   7.27000000E-01    1.00000000E+00 
****
H    0
S    3    1.000000
   1.30100000E+01    1.96850000E-02 
   1.96200000E+00    1.37977000E-01 
   4.44600000E-01    4.78148000E-01 
S    1    1.000000
   1.22000000E-01    1.00000000E+00 
P    1    1.000000
   7.27000000E-01    1.00000000E+00 
****
H    0
S    3    1.000000
   1.30100000E+01    1.96850000E-02 
   1.96200000E+00    1.37977000E-01 
   4.44600000E-01    4.78148000E-01 
S    1    1.000000
   1.22000000E-01    1.00000000E+00 
P    1    1.000000
   7.27000000E-01    1.00000000E+00 
****
$end
-----------------------------------------------------------------------
 There are 24 shells and 48 basis functions

 Total QAlloc Memory Limit   2000 MB
 Mega-Array Size       188 MB
 MEM_STATIC part       192 MB


                       Distance Matrix (Angstroms)
             C (  1)   O (  2)   H (  3)   H (  4)   H (  5)
   O (  2)  1.398287
   H (  3)  1.109420  2.047255
   H (  4)  1.923985  0.992342  2.852481
   H (  5)  1.111615  2.066188  1.799455  2.296137
   H (  6)  1.111615  2.066188  1.799455  2.296137  1.830238

 A cutoff of  1.0D-12 yielded    300 shell pairs
 There are      1220 function pairs (      1329 Cartesian)
 Smallest overlap matrix eigenvalue = 1.66E-02

 Scale SEOQF with 1.000000e+00/1.000000e+00/1.000000e+00

 Standard Electronic Orientation quadrupole field applied
 Nucleus-field energy     =    -0.0000000099 hartrees
 Guess from superposition of atomic densities
 Warning:  Energy on first SCF cycle will be non-variational
 SAD guess density has 18.000000 electrons

 -----------------------------------------------------------------------
  General SCF calculation program by
  Eric Jon Sundstrom, Paul Horn, Yuezhi Mao, Dmitri Zuev, Alec White,
  David Stuck, Shaama M.S., Shane Yost, Joonho Lee, David Small,
  Daniel Levine, Susi Lehtola, Hugh Burton, Evgeny Epifanovsky,
  Bang C. Huynh
 -----------------------------------------------------------------------
 Exchange:     0.1957 Hartree-Fock + 1.0000 wB97X-D3 + LR-HF
 Correlation:  1.0000 wB97X-D3
 Using SG-2 standard quadrature grid
 Dispersion:   Grimme D3
 using 4 threads for integral computing
 -------------------------------------------------------
 OpenMP Integral computing Module                
 Release: version 1.0, May 2013, Q-Chem Inc. Pittsburgh 
 -------------------------------------------------------
 A unrestricted SCF calculation will be
 performed using DIIS, GDM
 SCF converges when RMS gradient is below 1.0e-08
 ---------------------------------------
  Cycle       Energy         DIIS error
 ---------------------------------------
    1    -115.8370867643      4.75e-02  
    2    -115.2647949064      4.64e-03  Done DIIS. Switching to GDM
 ---------------------------------------
  Cycle       Energy        RMS Gradient
 ---------------------------------------
    1    -115.2647949064      7.10e-02   Normal BFGS step
    2    -115.2922204188      3.31e-02   Normal BFGS step
    3    -115.2962999791      8.80e-03   Normal BFGS step
    4    -115.2967641450      1.36e-02   Normal BFGS step
    5    -115.2969346100      1.98e-03   Normal BFGS step
    6    -115.2969770992      6.08e-04   Normal BFGS step
    7    -115.2969801863      1.58e-04   Normal BFGS step
    8    -115.2969804074      4.56e-05   Normal BFGS step
    9    -115.2969804291      1.95e-05   Normal BFGS step
   10    -115.2969804311      4.48e-06   Normal BFGS step
   11    -115.2969804312      9.54e-07   Normal BFGS step
   12    -115.2969804312      3.10e-07   Normal BFGS step
   13    -115.2969804312      9.49e-08   Normal BFGS step
   14    -115.2969804312      1.88e-08   Normal BFGS step
   15    -115.2969804312      3.92e-09  Convergence criterion met
 ---------------------------------------
 SCF time:   CPU 4.40s  wall 1.00s 
<S^2> =          0.754190617
 SCF   energy =  -115.29698043
 Total energy =  -115.29698043
 MAX_CIS_SUBSPACE fits in available memory
 Direct TDDFT/TDA calculation will be performed
 Exchange:     0.1957 Hartree-Fock + 1.0000 wB97X-D3 + LR-HF
 Correlation:  1.0000 wB97X-D3
 Using SG-2 standard quadrature grid
 Dispersion:   Grimme D3
 CIS energy converged when residual is below 10e- 6
 ---------------------------------------------------
 Iter    Rts Conv    Rts Left    Ttl Dev     Max Dev
 ---------------------------------------------------
   1         0           6      0.023831    0.009012
   2         0           6      0.005853    0.001470
   3         0           6      0.001490    0.000424
   4         0           6      0.000551    0.000236
   5         0           6      0.000231    0.000110
   6         2           4      0.000090    0.000045
   7         4           2      0.000039    0.000020
   8         4           2      0.000014    0.000008
   9         4           2      0.000007    0.000004
  10         5           1      0.000003    0.000002
  11         5           1      0.000003    0.000001
  12         6           0      0.000002    0.000001    Roots Converged
 ---------------------------------------------------

 ---------------------------------------------------
         TDDFT/TDA Excitation Energies              
 ---------------------------------------------------

 Excited state   1: excitation energy (eV) =       1.7318
 Total energy for state   1:                  -115.23333621 au
    <S**2>     :  0.7576
    Trans. Mom.:  0.0951 X   0.0000 Y  -0.0000 Z
    Strength   :     0.0003840505
    D(    5) --> V(    7) amplitude = -0.0106 alpha
    D(    8) --> V(   11) amplitude =  0.0139 alpha
    D(    3) --> S(    1) amplitude = -0.0111 beta
    D(    4) --> S(    1) amplitude =  0.0125 beta
    D(    5) --> S(    1) amplitude =  0.1138 beta
    D(    5) --> V(   14) amplitude =  0.0107 beta
    D(    6) --> S(    1) amplitude = -0.2205 beta
    D(    6) --> V(    4) amplitude = -0.0125 beta
    D(    6) --> V(   14) amplitude = -0.0183 beta
    D(    8) --> S(    1) amplitude =  0.9666 beta
    D(    8) --> V(    4) amplitude =  0.0340 beta
    D(    8) --> V(   14) amplitude =  0.0100 beta
    D(    8) --> V(   17) amplitude =  0.0135 beta

 Excited state   2: excitation energy (eV) =       4.2013
 Total energy for state   2:                  -115.14258617 au
    <S**2>     :  0.7570
    Trans. Mom.:  0.0672 X   0.0000 Y  -0.0000 Z
    Strength   :     0.0004641308
    D(    6) --> V(    3) amplitude =  0.0103 alpha
    D(    3) --> S(    1) amplitude =  0.0205 beta
    D(    4) --> S(    1) amplitude = -0.0824 beta
    D(    5) --> S(    1) amplitude = -0.0170 beta
    D(    6) --> S(    1) amplitude =  0.9685 beta
    D(    6) --> V(    4) amplitude =  0.0363 beta
    D(    6) --> V(   14) amplitude =  0.0205 beta
    D(    6) --> V(   17) amplitude =  0.0140 beta
    D(    8) --> S(    1) amplitude =  0.2258 beta
    D(    8) --> V(    7) amplitude = -0.0117 beta

 Excited state   3: excitation energy (eV) =       5.2913
 Total energy for state   3:                  -115.10252805 au
    <S**2>     :  0.7581
    Trans. Mom.: -0.0000 X  -0.1482 Y   0.9529 Z
    Strength   :     0.1205708431
    D(    3) --> V(    1) amplitude =  0.0242 alpha
    D(    3) --> V(    2) amplitude = -0.0159 alpha
    D(    3) --> V(    3) amplitude = -0.0130 alpha
    D(    4) --> V(    1) amplitude =  0.0213 alpha
    D(    4) --> V(    2) amplitude =  0.0167 alpha
    D(    4) --> V(    3) amplitude =  0.0147 alpha
    D(    4) --> V(    5) amplitude = -0.0185 alpha
    D(    4) --> V(    8) amplitude =  0.0102 alpha
    D(    5) --> V(    3) amplitude = -0.0469 alpha
    D(    5) --> V(    5) amplitude =  0.0308 alpha
    D(    5) --> V(    6) amplitude =  0.0127 alpha
    D(    5) --> V(    8) amplitude = -0.0146 alpha
    D(    6) --> V(    4) amplitude =  0.0200 alpha
    D(    6) --> V(   13) amplitude =  0.0241 alpha
    D(    6) --> V(   17) amplitude =  0.0133 alpha
    D(    7) --> V(    1) amplitude = -0.0525 alpha
    D(    7) --> V(    2) amplitude =  0.0425 alpha
    D(    7) --> V(    3) amplitude =  0.0757 alpha
    D(    7) --> V(    5) amplitude = -0.0141 alpha
    D(    7) --> V(    6) amplitude = -0.0225 alpha
    D(    7) --> V(    8) amplitude =  0.0250 alpha
    D(    7) --> V(    9) amplitude = -0.0184 alpha
    D(    7) --> V(   14) amplitude = -0.0106 alpha
    D(    7) --> V(   16) amplitude =  0.0134 alpha
    D(    8) --> V(    4) amplitude =  0.0284 alpha
    D(    8) --> V(    7) amplitude =  0.0624 alpha
    D(    8) --> V(   13) amplitude =  0.0326 alpha
    S(    1) --> V(    1) amplitude = -0.0193 alpha
    S(    1) --> V(    2) amplitude =  0.0200 alpha
    S(    1) --> V(    6) amplitude = -0.0302 alpha
    S(    1) --> V(   11) amplitude =  0.0124 alpha
    S(    1) --> V(   14) amplitude = -0.0274 alpha
    D(    3) --> V(    1) amplitude =  0.0134 beta
    D(    3) --> V(    2) amplitude = -0.0103 beta
    D(    4) --> V(    1) amplitude =  0.0181 beta
    D(    4) --> V(    2) amplitude =  0.0155 beta
    D(    4) --> V(    3) amplitude =  0.0102 beta
    D(    5) --> V(    3) amplitude = -0.0312 beta
    D(    5) --> V(    5) amplitude =  0.0428 beta
    D(    5) --> V(    8) amplitude = -0.0137 beta
    D(    6) --> V(    1) amplitude =  0.0449 beta
    D(    6) --> V(    2) amplitude = -0.0312 beta
    D(    6) --> V(    3) amplitude = -0.0639 beta
    D(    6) --> V(    5) amplitude =  0.0317 beta
    D(    6) --> V(    6) amplitude =  0.0140 beta
    D(    6) --> V(    8) amplitude = -0.0224 beta
    D(    6) --> V(    9) amplitude =  0.0176 beta
    D(    6) --> V(   16) amplitude = -0.0111 beta
    D(    7) --> S(    1) amplitude =  0.9769 beta
    D(    7) --> V(    4) amplitude =  0.0135 beta
    D(    8) --> V(    1) amplitude = -0.0258 beta
    D(    8) --> V(    2) amplitude =  0.0131 beta
    D(    8) --> V(    6) amplitude = -0.0214 beta
    D(    8) --> V(   13) amplitude =  0.0256 beta

 Excited state   4: excitation energy (eV) =       6.6609
 Total energy for state   4:                  -115.05219849 au
    <S**2>     :  0.7587
    Trans. Mom.: -0.2424 X   0.0000 Y  -0.0000 Z
    Strength   :     0.0095881897
    D(    6) --> V(    3) amplitude =  0.0143 alpha
    D(    6) --> V(    6) amplitude = -0.0122 alpha
    D(    8) --> V(    3) amplitude =  0.0243 alpha
    D(    8) --> V(    5) amplitude = -0.0387 alpha
    D(    8) --> V(    6) amplitude =  0.0178 alpha
    D(    8) --> V(   11) amplitude = -0.0158 alpha
    S(    1) --> V(    4) amplitude = -0.0264 alpha
    S(    1) --> V(    7) amplitude = -0.0244 alpha
    D(    4) --> S(    1) amplitude = -0.1754 beta
    D(    4) --> V(    4) amplitude = -0.0194 beta
    D(    4) --> V(    7) amplitude = -0.0104 beta
    D(    4) --> V(   14) amplitude = -0.0121 beta
    D(    5) --> S(    1) amplitude =  0.9737 beta
    D(    5) --> V(    4) amplitude =  0.0372 beta
    D(    5) --> V(    7) amplitude =  0.0119 beta
    D(    5) --> V(   14) amplitude =  0.0218 beta
    D(    5) --> V(   17) amplitude =  0.0110 beta
    D(    6) --> S(    1) amplitude =  0.0258 beta
    D(    7) --> V(    5) amplitude = -0.0178 beta
    D(    8) --> S(    1) amplitude = -0.1056 beta
    D(    8) --> V(   14) amplitude =  0.0129 beta

 Excited state   5: excitation energy (eV) =      10.5565
 Total energy for state   5:                  -114.90903748 au
    <S**2>     :  2.7242
    Trans. Mom.:  0.0000 X  -0.0140 Y   0.0085 Z
    Strength   :     0.0000696987
    D(    3) --> V(    1) amplitude =  0.0136 alpha
    D(    4) --> V(    1) amplitude =  0.0214 alpha
    D(    5) --> V(    1) amplitude = -0.0513 alpha
    D(    5) --> V(    2) amplitude =  0.0155 alpha
    D(    5) --> V(    3) amplitude = -0.0350 alpha
    D(    5) --> V(    5) amplitude =  0.0229 alpha
    D(    5) --> V(    6) amplitude =  0.0108 alpha
    D(    5) --> V(    9) amplitude = -0.0121 alpha
    D(    5) --> V(   11) amplitude =  0.0103 alpha
    D(    7) --> V(    1) amplitude = -0.0903 alpha
    D(    7) --> V(    2) amplitude =  0.0207 alpha
    D(    7) --> V(    3) amplitude = -0.0176 alpha
    D(    7) --> V(    9) amplitude = -0.0123 alpha
    D(    8) --> V(    4) amplitude = -0.0173 alpha
    S(    1) --> V(    1) amplitude = -0.5879 alpha
    S(    1) --> V(    2) amplitude =  0.0559 alpha
    S(    1) --> V(    3) amplitude =  0.1420 alpha
    S(    1) --> V(    5) amplitude = -0.0645 alpha
    S(    1) --> V(    8) amplitude =  0.0107 alpha
    S(    1) --> V(    9) amplitude = -0.0429 alpha
    D(    3) --> V(    1) amplitude = -0.0116 beta
    D(    4) --> V(    1) amplitude = -0.0211 beta
    D(    5) --> V(    1) amplitude =  0.0570 beta
    D(    5) --> V(    2) amplitude = -0.0241 beta
    D(    5) --> V(    3) amplitude =  0.0247 beta
    D(    5) --> V(    5) amplitude = -0.0276 beta
    D(    5) --> V(    6) amplitude = -0.0116 beta
    D(    5) --> V(    9) amplitude =  0.0100 beta
    D(    5) --> V(   11) amplitude = -0.0113 beta
    D(    6) --> V(    1) amplitude = -0.0990 beta
    D(    6) --> V(    2) amplitude =  0.0271 beta
    D(    6) --> V(    3) amplitude = -0.0293 beta
    D(    6) --> V(    5) amplitude =  0.0243 beta
    D(    7) --> V(    4) amplitude =  0.0137 beta
    D(    8) --> V(    1) amplitude =  0.7448 beta
    D(    8) --> V(    2) amplitude = -0.0521 beta
    D(    8) --> V(    3) amplitude = -0.1418 beta
    D(    8) --> V(    5) amplitude =  0.0978 beta
    D(    8) --> V(    9) amplitude =  0.0495 beta

 Excited state   6: excitation energy (eV) =      11.1612
 Total energy for state   6:                  -114.88681404 au
    <S**2>     :  0.7938
    Trans. Mom.:  0.0000 X   0.0477 Y  -0.0805 Z
    Strength   :     0.0023954041
    D(    5) --> V(    1) amplitude =  0.0196 alpha
    D(    5) --> V(    2) amplitude = -0.0111 alpha
    D(    7) --> V(    1) amplitude =  0.0422 alpha
    D(    7) --> V(    3) amplitude =  0.0455 alpha
    D(    7) --> V(    5) amplitude = -0.0250 alpha
    S(    1) --> V(    1) amplitude =  0.7532 alpha
    S(    1) --> V(    2) amplitude = -0.0352 alpha
    S(    1) --> V(    3) amplitude = -0.1705 alpha
    S(    1) --> V(    5) amplitude =  0.0681 alpha
    S(    1) --> V(    9) amplitude =  0.0233 alpha
    D(    3) --> V(    1) amplitude =  0.0104 beta
    D(    5) --> V(    1) amplitude =  0.0156 beta
    D(    5) --> V(    2) amplitude = -0.0131 beta
    D(    6) --> V(    1) amplitude = -0.0578 beta
    D(    6) --> V(    2) amplitude =  0.0124 beta
    D(    6) --> V(    3) amplitude = -0.0296 beta
    D(    6) --> V(    5) amplitude =  0.0299 beta
    D(    7) --> S(    1) amplitude =  0.0265 beta
    D(    7) --> V(    7) amplitude = -0.0102 beta
    D(    8) --> V(    1) amplitude =  0.6122 beta
    D(    8) --> V(    3) amplitude = -0.0766 beta
    D(    8) --> V(    5) amplitude =  0.0470 beta
    D(    8) --> V(    9) amplitude =  0.0128 beta
    D(    8) --> V(   15) amplitude = -0.0106 beta

 ---------------------------------------------------
 Starting SETmanPost()
  SETman timing summary (seconds)
  CPU time                 4.29s
  System time              0.00s
  Wall time                1.10s
 =======================================================
   TDA excitation amplitudes in the canonical MO basis
              (Print if |ampl| > 0.01)
 =======================================================
  Excited state  1:  1.7318 eV 
    D(  5) --> V(  7)  ampl = -0.0106 alpha  ( 0.0 %)
    D(  8) --> V( 11)  ampl =  0.0139 alpha  ( 0.0 %)
    D(  3) --> S(  1)  ampl = -0.0111 beta   ( 0.0 %)
    D(  4) --> S(  1)  ampl =  0.0125 beta   ( 0.0 %)
    D(  5) --> S(  1)  ampl =  0.1138 beta   ( 1.3 %)
    D(  5) --> V( 14)  ampl =  0.0107 beta   ( 0.0 %)
    D(  6) --> S(  1)  ampl = -0.2205 beta   ( 4.9 %)
    D(  6) --> V(  4)  ampl = -0.0125 beta   ( 0.0 %)
    D(  6) --> V( 14)  ampl = -0.0183 beta   ( 0.0 %)
    D(  8) --> S(  1)  ampl =  0.9666 beta   (93.4 %)
    D(  8) --> V(  4)  ampl =  0.0340 beta   ( 0.1 %)
    D(  8) --> V( 14)  ampl =  0.0100 beta   ( 0.0 %)
    D(  8) --> V( 17)  ampl =  0.0135 beta   ( 0.0 %)
  These amplitudes account for 99.8 % of the total amplitude

  Excited state  2:  4.2013 eV 
    D(  6) --> V(  3)  ampl =  0.0103 alpha  ( 0.0 %)
    D(  3) --> S(  1)  ampl =  0.0205 beta   ( 0.0 %)
    D(  4) --> S(  1)  ampl = -0.0824 beta   ( 0.7 %)
    D(  5) --> S(  1)  ampl = -0.0170 beta   ( 0.0 %)
    D(  6) --> S(  1)  ampl =  0.9685 beta   (93.8 %)
    D(  6) --> V(  4)  ampl =  0.0363 beta   ( 0.1 %)
    D(  6) --> V( 14)  ampl =  0.0205 beta   ( 0.0 %)
    D(  6) --> V( 17)  ampl =  0.0140 beta   ( 0.0 %)
    D(  8) --> S(  1)  ampl =  0.2258 beta   ( 5.1 %)
    D(  8) --> V(  7)  ampl = -0.0117 beta   ( 0.0 %)
  These amplitudes account for 99.9 % of the total amplitude

  Excited state  3:  5.2913 eV 
    D(  3) --> V(  1)  ampl =  0.0242 alpha  ( 0.1 %)
    D(  3) --> V(  2)  ampl = -0.0159 alpha  ( 0.0 %)
    D(  3) --> V(  3)  ampl = -0.0130 alpha  ( 0.0 %)
    D(  4) --> V(  1)  ampl =  0.0213 alpha  ( 0.0 %)
    D(  4) --> V(  2)  ampl =  0.0167 alpha  ( 0.0 %)
    D(  4) --> V(  3)  ampl =  0.0147 alpha  ( 0.0 %)
    D(  4) --> V(  5)  ampl = -0.0185 alpha  ( 0.0 %)
    D(  4) --> V(  8)  ampl =  0.0102 alpha  ( 0.0 %)
    D(  5) --> V(  3)  ampl = -0.0469 alpha  ( 0.2 %)
    D(  5) --> V(  5)  ampl =  0.0308 alpha  ( 0.1 %)
    D(  5) --> V(  6)  ampl =  0.0127 alpha  ( 0.0 %)
    D(  5) --> V(  8)  ampl = -0.0146 alpha  ( 0.0 %)
    D(  6) --> V(  4)  ampl =  0.0200 alpha  ( 0.0 %)
    D(  6) --> V( 13)  ampl =  0.0241 alpha  ( 0.1 %)
    D(  6) --> V( 17)  ampl =  0.0133 alpha  ( 0.0 %)
    D(  7) --> V(  1)  ampl = -0.0525 alpha  ( 0.3 %)
    D(  7) --> V(  2)  ampl =  0.0425 alpha  ( 0.2 %)
    D(  7) --> V(  3)  ampl =  0.0757 alpha  ( 0.6 %)
    D(  7) --> V(  5)  ampl = -0.0141 alpha  ( 0.0 %)
    D(  7) --> V(  6)  ampl = -0.0225 alpha  ( 0.1 %)
    D(  7) --> V(  8)  ampl =  0.0250 alpha  ( 0.1 %)
    D(  7) --> V(  9)  ampl = -0.0184 alpha  ( 0.0 %)
    D(  7) --> V( 14)  ampl = -0.0106 alpha  ( 0.0 %)
    D(  7) --> V( 16)  ampl =  0.0134 alpha  ( 0.0 %)
    D(  8) --> V(  4)  ampl =  0.0284 alpha  ( 0.1 %)
    D(  8) --> V(  7)  ampl =  0.0624 alpha  ( 0.4 %)
    D(  8) --> V( 13)  ampl =  0.0326 alpha  ( 0.1 %)
    S(  1) --> V(  1)  ampl = -0.0193 alpha  ( 0.0 %)
    S(  1) --> V(  2)  ampl =  0.0200 alpha  ( 0.0 %)
    S(  1) --> V(  6)  ampl = -0.0302 alpha  ( 0.1 %)
    S(  1) --> V( 11)  ampl =  0.0124 alpha  ( 0.0 %)
    S(  1) --> V( 14)  ampl = -0.0274 alpha  ( 0.1 %)
    D(  3) --> V(  1)  ampl =  0.0134 beta   ( 0.0 %)
    D(  3) --> V(  2)  ampl = -0.0103 beta   ( 0.0 %)
    D(  4) --> V(  1)  ampl =  0.0181 beta   ( 0.0 %)
    D(  4) --> V(  2)  ampl =  0.0155 beta   ( 0.0 %)
    D(  4) --> V(  3)  ampl =  0.0102 beta   ( 0.0 %)
    D(  5) --> V(  3)  ampl = -0.0312 beta   ( 0.1 %)
    D(  5) --> V(  5)  ampl =  0.0428 beta   ( 0.2 %)
    D(  5) --> V(  8)  ampl = -0.0137 beta   ( 0.0 %)
    D(  6) --> V(  1)  ampl =  0.0449 beta   ( 0.2 %)
    D(  6) --> V(  2)  ampl = -0.0312 beta   ( 0.1 %)
    D(  6) --> V(  3)  ampl = -0.0639 beta   ( 0.4 %)
    D(  6) --> V(  5)  ampl =  0.0317 beta   ( 0.1 %)
    D(  6) --> V(  6)  ampl =  0.0140 beta   ( 0.0 %)
    D(  6) --> V(  8)  ampl = -0.0224 beta   ( 0.1 %)
    D(  6) --> V(  9)  ampl =  0.0176 beta   ( 0.0 %)
    D(  6) --> V( 16)  ampl = -0.0111 beta   ( 0.0 %)
    D(  7) --> S(  1)  ampl =  0.9769 beta   (95.4 %)
    D(  7) --> V(  4)  ampl =  0.0135 beta   ( 0.0 %)
    D(  8) --> V(  1)  ampl = -0.0258 beta   ( 0.1 %)
    D(  8) --> V(  2)  ampl =  0.0131 beta   ( 0.0 %)
    D(  8) --> V(  6)  ampl = -0.0214 beta   ( 0.0 %)
    D(  8) --> V( 13)  ampl =  0.0256 beta   ( 0.1 %)
  These amplitudes account for 99.7 % of the total amplitude

  Excited state  4:  6.6609 eV 
    D(  6) --> V(  3)  ampl =  0.0143 alpha  ( 0.0 %)
    D(  6) --> V(  6)  ampl = -0.0122 alpha  ( 0.0 %)
    D(  8) --> V(  3)  ampl =  0.0243 alpha  ( 0.1 %)
    D(  8) --> V(  5)  ampl = -0.0387 alpha  ( 0.1 %)
    D(  8) --> V(  6)  ampl =  0.0178 alpha  ( 0.0 %)
    D(  8) --> V( 11)  ampl = -0.0158 alpha  ( 0.0 %)
    S(  1) --> V(  4)  ampl = -0.0264 alpha  ( 0.1 %)
    S(  1) --> V(  7)  ampl = -0.0244 alpha  ( 0.1 %)
    D(  4) --> S(  1)  ampl = -0.1754 beta   ( 3.1 %)
    D(  4) --> V(  4)  ampl = -0.0194 beta   ( 0.0 %)
    D(  4) --> V(  7)  ampl = -0.0104 beta   ( 0.0 %)
    D(  4) --> V( 14)  ampl = -0.0121 beta   ( 0.0 %)
    D(  5) --> S(  1)  ampl =  0.9737 beta   (94.8 %)
    D(  5) --> V(  4)  ampl =  0.0372 beta   ( 0.1 %)
    D(  5) --> V(  7)  ampl =  0.0119 beta   ( 0.0 %)
    D(  5) --> V( 14)  ampl =  0.0218 beta   ( 0.0 %)
    D(  5) --> V( 17)  ampl =  0.0110 beta   ( 0.0 %)
    D(  6) --> S(  1)  ampl =  0.0258 beta   ( 0.1 %)
    D(  7) --> V(  5)  ampl = -0.0178 beta   ( 0.0 %)
    D(  8) --> S(  1)  ampl = -0.1056 beta   ( 1.1 %)
    D(  8) --> V( 14)  ampl =  0.0129 beta   ( 0.0 %)
  These amplitudes account for 99.8 % of the total amplitude

  Excited state  5: 10.5565 eV 
    D(  3) --> V(  1)  ampl =  0.0136 alpha  ( 0.0 %)
    D(  4) --> V(  1)  ampl =  0.0214 alpha  ( 0.0 %)
    D(  5) --> V(  1)  ampl = -0.0513 alpha  ( 0.3 %)
    D(  5) --> V(  2)  ampl =  0.0155 alpha  ( 0.0 %)
    D(  5) --> V(  3)  ampl = -0.0350 alpha  ( 0.1 %)
    D(  5) --> V(  5)  ampl =  0.0229 alpha  ( 0.1 %)
    D(  5) --> V(  6)  ampl =  0.0108 alpha  ( 0.0 %)
    D(  5) --> V(  9)  ampl = -0.0121 alpha  ( 0.0 %)
    D(  5) --> V( 11)  ampl =  0.0103 alpha  ( 0.0 %)
    D(  7) --> V(  1)  ampl = -0.0903 alpha  ( 0.8 %)
    D(  7) --> V(  2)  ampl =  0.0207 alpha  ( 0.0 %)
    D(  7) --> V(  3)  ampl = -0.0176 alpha  ( 0.0 %)
    D(  7) --> V(  9)  ampl = -0.0123 alpha  ( 0.0 %)
    D(  8) --> V(  4)  ampl = -0.0173 alpha  ( 0.0 %)
    S(  1) --> V(  1)  ampl = -0.5879 alpha  (34.6 %)
    S(  1) --> V(  2)  ampl =  0.0559 alpha  ( 0.3 %)
    S(  1) --> V(  3)  ampl =  0.1420 alpha  ( 2.0 %)
    S(  1) --> V(  5)  ampl = -0.0645 alpha  ( 0.4 %)
    S(  1) --> V(  8)  ampl =  0.0107 alpha  ( 0.0 %)
    S(  1) --> V(  9)  ampl = -0.0429 alpha  ( 0.2 %)
    D(  3) --> V(  1)  ampl = -0.0116 beta   ( 0.0 %)
    D(  4) --> V(  1)  ampl = -0.0211 beta   ( 0.0 %)
    D(  5) --> V(  1)  ampl =  0.0570 beta   ( 0.3 %)
    D(  5) --> V(  2)  ampl = -0.0241 beta   ( 0.1 %)
    D(  5) --> V(  3)  ampl =  0.0247 beta   ( 0.1 %)
    D(  5) --> V(  5)  ampl = -0.0276 beta   ( 0.1 %)
    D(  5) --> V(  6)  ampl = -0.0116 beta   ( 0.0 %)
    D(  5) --> V(  9)  ampl =  0.0100 beta   ( 0.0 %)
    D(  5) --> V( 11)  ampl = -0.0113 beta   ( 0.0 %)
    D(  6) --> V(  1)  ampl = -0.0990 beta   ( 1.0 %)
    D(  6) --> V(  2)  ampl =  0.0271 beta   ( 0.1 %)
    D(  6) --> V(  3)  ampl = -0.0293 beta   ( 0.1 %)
    D(  6) --> V(  5)  ampl =  0.0243 beta   ( 0.1 %)
    D(  7) --> V(  4)  ampl =  0.0137 beta   ( 0.0 %)
    D(  8) --> V(  1)  ampl =  0.7448 beta   (55.5 %)
    D(  8) --> V(  2)  ampl = -0.0521 beta   ( 0.3 %)
    D(  8) --> V(  3)  ampl = -0.1418 beta   ( 2.0 %)
    D(  8) --> V(  5)  ampl =  0.0978 beta   ( 1.0 %)
    D(  8) --> V(  9)  ampl =  0.0495 beta   ( 0.2 %)
  These amplitudes account for 99.8 % of the total amplitude

  Excited state  6: 11.1612 eV 
    D(  5) --> V(  1)  ampl =  0.0196 alpha  ( 0.0 %)
    D(  5) --> V(  2)  ampl = -0.0111 alpha  ( 0.0 %)
    D(  7) --> V(  1)  ampl =  0.0422 alpha  ( 0.2 %)
    D(  7) --> V(  3)  ampl =  0.0455 alpha  ( 0.2 %)
    D(  7) --> V(  5)  ampl = -0.0250 alpha  ( 0.1 %)
    S(  1) --> V(  1)  ampl =  0.7532 alpha  (56.7 %)
    S(  1) --> V(  2)  ampl = -0.0352 alpha  ( 0.1 %)
    S(  1) --> V(  3)  ampl = -0.1705 alpha  ( 2.9 %)
    S(  1) --> V(  5)  ampl =  0.0681 alpha  ( 0.5 %)
    S(  1) --> V(  9)  ampl =  0.0233 alpha  ( 0.1 %)
    D(  3) --> V(  1)  ampl =  0.0104 beta   ( 0.0 %)
    D(  5) --> V(  1)  ampl =  0.0156 beta   ( 0.0 %)
    D(  5) --> V(  2)  ampl = -0.0131 beta   ( 0.0 %)
    D(  6) --> V(  1)  ampl = -0.0578 beta   ( 0.3 %)
    D(  6) --> V(  2)  ampl =  0.0124 beta   ( 0.0 %)
    D(  6) --> V(  3)  ampl = -0.0296 beta   ( 0.1 %)
    D(  6) --> V(  5)  ampl =  0.0299 beta   ( 0.1 %)
    D(  7) --> S(  1)  ampl =  0.0265 beta   ( 0.1 %)
    D(  7) --> V(  7)  ampl = -0.0102 beta   ( 0.0 %)
    D(  8) --> V(  1)  ampl =  0.6122 beta   (37.5 %)
    D(  8) --> V(  3)  ampl = -0.0766 beta   ( 0.6 %)
    D(  8) --> V(  5)  ampl =  0.0470 beta   ( 0.2 %)
    D(  8) --> V(  9)  ampl =  0.0128 beta   ( 0.0 %)
    D(  8) --> V( 15)  ampl = -0.0106 beta   ( 0.0 %)
  These amplitudes account for 99.7 % of the total amplitude

 =======================================================
           Mulliken & Loewdin analysis of e-/h+         
               contributions to (Delta)P                
 =======================================================
         Mulliken analysis of TDA State    1
 -------------------------------------------------------
   Atom  Alpha e-  Beta e-  Alpha h+  Beta h+  (Del)q   
 -------------------------------------------------------
      1  -0.0005  -0.1112   0.0005   0.2761   0.1649
      2  -0.0003  -0.7204   0.0004   0.4113  -0.3091
      3  -0.0000  -0.0008   0.0000   0.1492   0.1484
      4  -0.0000  -0.0083   0.0000   0.0560   0.0478
      5  -0.0003  -0.0790   0.0002   0.0530  -0.0260
      6  -0.0003  -0.0790   0.0002   0.0530  -0.0260
  Sum:   -0.0013  -0.9987   0.0013   0.9987   0.0000
 -------------------------------------------------------
          Loewdin analysis of TDA State    1
 -------------------------------------------------------
   Atom  Alpha e-  Beta e-  Alpha h+  Beta h+  (Del)q   
 -------------------------------------------------------
      1  -0.0005  -0.1337   0.0005   0.2851   0.1515
      2  -0.0003  -0.6982   0.0003   0.4205  -0.2777
      3  -0.0000  -0.0023   0.0000   0.1387   0.1364
      4  -0.0000  -0.0216   0.0000   0.0492   0.0276
      5  -0.0003  -0.0714   0.0002   0.0526  -0.0189
      6  -0.0003  -0.0714   0.0002   0.0526  -0.0189
  Sum:   -0.0013  -0.9987   0.0013   0.9987  -0.0000
 -------------------------------------------------------
         Mulliken analysis of TDA State    2
 -------------------------------------------------------
   Atom  Alpha e-  Beta e-  Alpha h+  Beta h+  (Del)q   
 -------------------------------------------------------
      1  -0.0002  -0.1101   0.0001   0.3736   0.2634
      2  -0.0003  -0.7201   0.0005   0.4513  -0.2686
      3  -0.0001  -0.0008   0.0000   0.1615   0.1608
      4  -0.0001  -0.0080   0.0000   0.0089   0.0008
      5  -0.0000  -0.0801   0.0000   0.0020  -0.0782
      6  -0.0000  -0.0801   0.0000   0.0020  -0.0782
  Sum:   -0.0008  -0.9992   0.0008   0.9992   0.0000
 -------------------------------------------------------
          Loewdin analysis of TDA State    2
 -------------------------------------------------------
   Atom  Alpha e-  Beta e-  Alpha h+  Beta h+  (Del)q   
 -------------------------------------------------------
      1  -0.0002  -0.1335   0.0001   0.3532   0.2196
      2  -0.0004  -0.6982   0.0005   0.4465  -0.2516
      3  -0.0001  -0.0021   0.0000   0.1697   0.1677
      4  -0.0001  -0.0213   0.0000   0.0183  -0.0031
      5  -0.0000  -0.0720   0.0000   0.0057  -0.0663
      6  -0.0000  -0.0720   0.0000   0.0057  -0.0663
  Sum:   -0.0008  -0.9992   0.0008   0.9992   0.0000
 -------------------------------------------------------
         Mulliken analysis of TDA State    3
 -------------------------------------------------------
   Atom  Alpha e-  Beta e-  Alpha h+  Beta h+  (Del)q   
 -------------------------------------------------------
      1  -0.0160  -0.1057   0.0076   0.4602   0.3461
      2  -0.0075  -0.6881   0.0164   0.2373  -0.4420
      3  -0.0005  -0.0011   0.0009   0.0026   0.0018
      4  -0.0018  -0.0090   0.0012   0.0031  -0.0066
      5  -0.0017  -0.0834   0.0016   0.1338   0.0503
      6  -0.0017  -0.0834   0.0016   0.1338   0.0503
  Sum:   -0.0293  -0.9707   0.0293   0.9707   0.0000
 -------------------------------------------------------
          Loewdin analysis of TDA State    3
 -------------------------------------------------------
   Atom  Alpha e-  Beta e-  Alpha h+  Beta h+  (Del)q   
 -------------------------------------------------------
      1  -0.0133  -0.1314   0.0078   0.4601   0.3232
      2  -0.0095  -0.6687   0.0160   0.2297  -0.4324
      3  -0.0008  -0.0024   0.0010   0.0062   0.0040
      4  -0.0019  -0.0221   0.0013   0.0059  -0.0169
      5  -0.0019  -0.0731   0.0016   0.1344   0.0610
      6  -0.0019  -0.0731   0.0016   0.1344   0.0610
  Sum:   -0.0293  -0.9707   0.0293   0.9707   0.0000
 -------------------------------------------------------
         Mulliken analysis of TDA State    4
 -------------------------------------------------------
   Atom  Alpha e-  Beta e-  Alpha h+  Beta h+  (Del)q   
 -------------------------------------------------------
      1  -0.0027  -0.1102   0.0019   0.2587   0.1478
      2  -0.0007  -0.7203   0.0018   0.4804  -0.2388
      3  -0.0002  -0.0008   0.0003   0.0026   0.0019
      4  -0.0004  -0.0085   0.0000   0.1494   0.1406
      5  -0.0008  -0.0773   0.0007   0.0517  -0.0257
      6  -0.0008  -0.0773   0.0007   0.0517  -0.0257
  Sum:   -0.0055  -0.9945   0.0055   0.9945   0.0000
 -------------------------------------------------------
          Loewdin analysis of TDA State    4
 -------------------------------------------------------
   Atom  Alpha e-  Beta e-  Alpha h+  Beta h+  (Del)q   
 -------------------------------------------------------
      1  -0.0025  -0.1319   0.0020   0.2619   0.1295
      2  -0.0008  -0.6979   0.0018   0.4906  -0.2064
      3  -0.0002  -0.0022   0.0003   0.0043   0.0021
      4  -0.0003  -0.0218   0.0001   0.1246   0.1025
      5  -0.0008  -0.0703   0.0007   0.0566  -0.0138
      6  -0.0008  -0.0703   0.0007   0.0566  -0.0138
  Sum:   -0.0055  -0.9945   0.0055   0.9945  -0.0000
 -------------------------------------------------------
         Mulliken analysis of TDA State    5
 -------------------------------------------------------
   Atom  Alpha e-  Beta e-  Alpha h+  Beta h+  (Del)q   
 -------------------------------------------------------
      1  -0.1423  -0.1860   0.1389   0.2037   0.0142
      2  -0.0090  -0.0193   0.1048   0.1898   0.2663
      3  -0.0071  -0.0118   0.0758   0.1064   0.1633
      4  -0.2007  -0.3327   0.0208   0.0332  -0.4794
      5  -0.0159  -0.0296   0.0254   0.0379   0.0178
      6  -0.0159  -0.0296   0.0254   0.0379   0.0178
  Sum:   -0.3910  -0.6090   0.3910   0.6090  -0.0000
 -------------------------------------------------------
          Loewdin analysis of TDA State    5
 -------------------------------------------------------
   Atom  Alpha e-  Beta e-  Alpha h+  Beta h+  (Del)q   
 -------------------------------------------------------
      1  -0.1127  -0.1549   0.1431   0.2085   0.0840
      2  -0.0704  -0.1089   0.1089   0.1961   0.1257
      3  -0.0095  -0.0147   0.0716   0.0995   0.1469
      4  -0.1689  -0.2804   0.0184   0.0293  -0.4016
      5  -0.0147  -0.0251   0.0245   0.0378   0.0225
      6  -0.0147  -0.0251   0.0245   0.0378   0.0225
  Sum:   -0.3910  -0.6090   0.3910   0.6090  -0.0000
 -------------------------------------------------------
         Mulliken analysis of TDA State    6
 -------------------------------------------------------
   Atom  Alpha e-  Beta e-  Alpha h+  Beta h+  (Del)q   
 -------------------------------------------------------
      1  -0.2090  -0.0860   0.2498   0.1426   0.0974
      2  -0.0021  -0.0056   0.1185   0.1082   0.2190
      3  -0.0142  -0.0100   0.1403   0.0738   0.1900
      4  -0.3207  -0.2346   0.0218   0.0153  -0.5182
      5  -0.0316  -0.0273   0.0394   0.0255   0.0059
      6  -0.0316  -0.0273   0.0394   0.0255   0.0059
  Sum:   -0.6091  -0.3909   0.6091   0.3909  -0.0000
 -------------------------------------------------------
          Loewdin analysis of TDA State    6
 -------------------------------------------------------
   Atom  Alpha e-  Beta e-  Alpha h+  Beta h+  (Del)q   
 -------------------------------------------------------
      1  -0.1690  -0.0816   0.2550   0.1451   0.1494
      2  -0.1012  -0.0628   0.1241   0.1115   0.0716
      3  -0.0165  -0.0101   0.1333   0.0692   0.1759
      4  -0.2689  -0.1954   0.0203   0.0142  -0.4298
      5  -0.0267  -0.0205   0.0383   0.0254   0.0164
      6  -0.0267  -0.0205   0.0383   0.0254   0.0164
  Sum:   -0.6091  -0.3909   0.6091   0.3909  -0.0000
 -------------------------------------------------------
 Created directory /media/HDD1/guest/qcscratch/qchem1082871/NTOs
 ======================================================
      TDA excitation amplitudes in the NTO basis  
               (Print if |ampl| > 0.01)
 ======================================================
  Excited state 1:   1.7318 eV 
    e-/hole pair  1 alpha:  ampl =  0.0235   ( 0.1 %)
    e-/hole pair  2 alpha:  ampl =  0.0207   ( 0.0 %)
    e-/hole pair  3 alpha:  ampl =  0.0135   ( 0.0 %)
    e-/hole pair  4 alpha:  ampl =  0.0115   ( 0.0 %)
    e-/hole pair  1 beta :  ampl =  0.9990   (99.8 %)
    e-/hole pair  2 beta :  ampl =  0.0222   ( 0.0 %)
  These amplitudes account for 100.0 % of total amplitude

  Excited state 2:   4.2013 eV 
    e-/hole pair  1 alpha:  ampl =  0.0177   ( 0.0 %)
    e-/hole pair  2 alpha:  ampl =  0.0150   ( 0.0 %)
    e-/hole pair  3 alpha:  ampl =  0.0104   ( 0.0 %)
    e-/hole pair  1 beta :  ampl =  0.9992   (99.8 %)
    e-/hole pair  2 beta :  ampl =  0.0249   ( 0.1 %)
    e-/hole pair  3 beta :  ampl =  0.0102   ( 0.0 %)
  These amplitudes account for 100.0 % of total amplitude

  Excited state 3:   5.2913 eV 
    e-/hole pair  1 alpha:  ampl =  0.1270   ( 1.6 %)
    e-/hole pair  2 alpha:  ampl =  0.0799   ( 0.6 %)
    e-/hole pair  3 alpha:  ampl =  0.0613   ( 0.4 %)
    e-/hole pair  4 alpha:  ampl =  0.0352   ( 0.1 %)
    e-/hole pair  5 alpha:  ampl =  0.0279   ( 0.1 %)
    e-/hole pair  6 alpha:  ampl =  0.0255   ( 0.1 %)
    e-/hole pair  7 alpha:  ampl =  0.0175   ( 0.0 %)
    e-/hole pair  1 beta :  ampl =  0.9771   (95.5 %)
    e-/hole pair  2 beta :  ampl =  0.1112   ( 1.2 %)
    e-/hole pair  3 beta :  ampl =  0.0485   ( 0.2 %)
    e-/hole pair  4 beta :  ampl =  0.0255   ( 0.1 %)
    e-/hole pair  5 beta :  ampl =  0.0238   ( 0.1 %)
    e-/hole pair  6 beta :  ampl =  0.0105   ( 0.0 %)
  These amplitudes account for 100.0 % of total amplitude

  Excited state 4:   6.6609 eV 
    e-/hole pair  1 alpha:  ampl =  0.0531   ( 0.3 %)
    e-/hole pair  2 alpha:  ampl =  0.0394   ( 0.2 %)
    e-/hole pair  3 alpha:  ampl =  0.0269   ( 0.1 %)
    e-/hole pair  4 alpha:  ampl =  0.0135   ( 0.0 %)
    e-/hole pair  5 alpha:  ampl =  0.0108   ( 0.0 %)
    e-/hole pair  1 beta :  ampl =  0.9967   (99.3 %)
    e-/hole pair  2 beta :  ampl =  0.0232   ( 0.1 %)
    e-/hole pair  3 beta :  ampl =  0.0214   ( 0.0 %)
    e-/hole pair  4 beta :  ampl =  0.0119   ( 0.0 %)
  These amplitudes account for 100.0 % of total amplitude

  Excited state 5:  10.5565 eV 
    e-/hole pair  1 alpha:  ampl =  0.6202   (38.5 %)
    e-/hole pair  2 alpha:  ampl =  0.0748   ( 0.6 %)
    e-/hole pair  3 alpha:  ampl =  0.0210   ( 0.0 %)
    e-/hole pair  4 alpha:  ampl =  0.0141   ( 0.0 %)
    e-/hole pair  5 alpha:  ampl =  0.0111   ( 0.0 %)
    e-/hole pair  1 beta :  ampl =  0.7752   (60.1 %)
    e-/hole pair  2 beta :  ampl =  0.0856   ( 0.7 %)
    e-/hole pair  3 beta :  ampl =  0.0168   ( 0.0 %)
    e-/hole pair  4 beta :  ampl =  0.0160   ( 0.0 %)
  These amplitudes account for 100.0 % of total amplitude

  Excited state 6:  11.1612 eV 
    e-/hole pair  1 alpha:  ampl =  0.7774   (60.4 %)
    e-/hole pair  2 alpha:  ampl =  0.0625   ( 0.4 %)
    e-/hole pair  3 alpha:  ampl =  0.0171   ( 0.0 %)
    e-/hole pair  4 alpha:  ampl =  0.0171   ( 0.0 %)
    e-/hole pair  5 alpha:  ampl =  0.0121   ( 0.0 %)
    e-/hole pair  6 alpha:  ampl =  0.0100   ( 0.0 %)
    e-/hole pair  1 beta :  ampl =  0.6216   (38.6 %)
    e-/hole pair  2 beta :  ampl =  0.0537   ( 0.3 %)
    e-/hole pair  3 beta :  ampl =  0.0310   ( 0.1 %)
    e-/hole pair  4 beta :  ampl =  0.0199   ( 0.0 %)
    e-/hole pair  5 beta :  ampl =  0.0137   ( 0.0 %)
  These amplitudes account for 100.0 % of total amplitude

 =======================================================

 --------------------------------------------------------------

                    Orbital Energies (a.u.)
 --------------------------------------------------------------

 Alpha MOs
 -- Occupied --
-19.7001 -10.6376  -1.5533  -1.1194  -0.9678  -0.9162  -0.8756  -0.7642
 -0.7557
 -- Virtual --
 -0.1302  -0.0506  -0.0191  -0.0156  -0.0028   0.2696   0.2774   0.3041
  0.3572   0.4566   0.4607   0.4821   0.6372   0.6438   0.7638   0.7772
  0.8212   0.9753   1.0928   1.1878   1.2105   1.3859   1.4153   1.4455
  1.4456   1.5114   1.6462   1.7499   1.8254   1.8714   1.9179   2.1788
  2.1993   2.2260   2.5953   2.6886   2.7624   2.8916   3.3547

 Beta MOs
 -- Occupied --
-19.6825 -10.6371  -1.5022  -1.1005  -0.9457  -0.8576  -0.8266  -0.7446
 -- Virtual --
 -0.4207  -0.1230  -0.0449  -0.0133  -0.0063   0.0022   0.2751   0.2941
  0.3057   0.3620   0.4668   0.4753   0.4843   0.6529   0.6821   0.7682
  0.7867   0.8482   0.9817   1.1070   1.1927   1.2220   1.3976   1.4256
  1.4491   1.4594   1.5313   1.6533   1.7583   1.8402   1.8797   1.9284
  2.1931   2.2116   2.2269   2.6525   2.7430   2.8088   2.9193   3.3762
 --------------------------------------------------------------


                        ALPHA MOLECULAR ORBITAL COEFFICIENTS
                         1         2         3         4         5         6
 eigenvalues:        -19.700   -10.638    -1.553    -1.119    -0.968    -0.916
   1  C     s        0.00004  -0.99675  -0.06082   0.16299   0.05546   0.00000
   2  C     s        0.00013  -0.02815   0.12041  -0.35519  -0.11516  -0.00000
   3  C     s       -0.00578   0.01222   0.02092  -0.22098  -0.11637   0.00000
   4  C     px      -0.00000  -0.00000   0.00000   0.00000   0.00000  -0.27985
   5  C     py      -0.00001   0.00028  -0.00187  -0.01194   0.16161   0.00000
   6  C     pz       0.00058   0.00060  -0.10764   0.01571  -0.18872   0.00000
   7  C     px       0.00000  -0.00000   0.00000   0.00000   0.00000  -0.09853
   8  C     py      -0.00023  -0.00021  -0.00696   0.00279   0.07436   0.00000
   9  C     pz       0.00254   0.00084  -0.00826  -0.00592  -0.04115   0.00000
  10  C     d 1      0.00000   0.00000   0.00000  -0.00000  -0.00000   0.00931
  11  C     d 2     -0.00016  -0.00005   0.00259   0.00713  -0.02548  -0.00000
  12  C     d 3      0.00019   0.00019   0.02867  -0.00865   0.02108  -0.00000
  13  C     d 4     -0.00000  -0.00000  -0.00000  -0.00000  -0.00000   0.02640
  14  C     d 5     -0.00000  -0.00019   0.00104  -0.00161  -0.00249  -0.00000
  15  O     s       -0.99679  -0.00009  -0.20318  -0.04949  -0.05019  -0.00000
  16  O     s       -0.02252  -0.00074   0.46120   0.12589   0.12430   0.00000
  17  O     s        0.01143   0.00173   0.40996   0.11330   0.19545   0.00000
  18  O     px       0.00000   0.00000   0.00000  -0.00000   0.00000  -0.55731
  19  O     py       0.00142  -0.00005  -0.08714  -0.13457   0.42081   0.00000
  20  O     pz      -0.00099   0.00009   0.07050  -0.28857   0.20236  -0.00000
  21  O     px      -0.00000  -0.00000  -0.00000  -0.00000   0.00000  -0.31857
  22  O     py      -0.00088  -0.00080  -0.01007  -0.03282   0.18552   0.00000
  23  O     pz       0.00301   0.00159   0.03959  -0.13369   0.07849  -0.00000
  24  O     d 1      0.00000  -0.00000   0.00000   0.00000  -0.00000   0.01480
  25  O     d 2     -0.00020  -0.00011  -0.00065   0.00721   0.00431   0.00000
  26  O     d 3      0.00034   0.00084   0.00184  -0.01703   0.01007   0.00000
  27  O     d 4     -0.00000  -0.00000  -0.00000  -0.00000   0.00000  -0.01568
  28  O     d 5     -0.00006  -0.00021   0.00400  -0.00219   0.01431   0.00000
  29  H 1   s        0.00073   0.00107   0.02594  -0.15046  -0.02069   0.00000
  30  H 1   s        0.00042  -0.00208   0.00361  -0.00920  -0.01498  -0.00000
  31  H 1   px      -0.00000   0.00000  -0.00000  -0.00000   0.00000  -0.00844
  32  H 1   py      -0.00014  -0.00132  -0.00466   0.02011   0.00388   0.00000
  33  H 1   pz      -0.00028  -0.00061  -0.00476   0.00658  -0.00133   0.00000
  34  H 2   s       -0.00028  -0.00076   0.15686   0.18994  -0.28209  -0.00000
  35  H 2   s       -0.00021  -0.00043  -0.00495   0.01091  -0.03019   0.00000
  36  H 2   px      -0.00000   0.00000   0.00000   0.00000   0.00000  -0.02149
  37  H 2   py       0.00093  -0.00016   0.03357   0.02950  -0.03080  -0.00000
  38  H 2   pz       0.00009  -0.00066   0.01492   0.00487  -0.01668  -0.00000
  39  H 3   s        0.00063   0.00120   0.02907  -0.16074  -0.15804  -0.15849
  40  H 3   s        0.00028  -0.00229   0.00212  -0.00608  -0.01379  -0.02474
  41  H 3   px      -0.00006  -0.00124  -0.00570   0.01753   0.01528   0.00614
  42  H 3   py       0.00007   0.00077   0.00312  -0.01107  -0.00464  -0.00896
  43  H 3   pz      -0.00027  -0.00057  -0.00469   0.00667   0.00095   0.00475
  44  H 4   s        0.00063   0.00120   0.02907  -0.16074  -0.15804   0.15849
  45  H 4   s        0.00028  -0.00229   0.00212  -0.00608  -0.01379   0.02474
  46  H 4   px       0.00006   0.00124   0.00570  -0.01753  -0.01528   0.00614
  47  H 4   py       0.00007   0.00077   0.00312  -0.01107  -0.00464   0.00896
  48  H 4   pz      -0.00027  -0.00057  -0.00469   0.00667   0.00095  -0.00475
                         7         8         9        10        11        12
 eigenvalues:         -0.876    -0.764    -0.756    -0.130    -0.051    -0.019
   1  C     s       -0.02594  -0.00000   0.01005  -0.01329  -0.13432  -0.01522
   2  C     s        0.04983   0.00000  -0.02992   0.01705   0.28249   0.03289
   3  C     s        0.08050   0.00000  -0.00637   0.38073   1.87887   0.03737
   4  C     px       0.00000   0.38065   0.00000  -0.00000   0.00000   0.00000
   5  C     py       0.13999   0.00000  -0.43458  -0.06073  -0.07843  -0.15795
   6  C     pz       0.30431   0.00000   0.00688   0.19955  -0.05417  -0.39818
   7  C     px       0.00000   0.15580   0.00000  -0.00000   0.00000   0.00000
   8  C     py       0.08207   0.00000  -0.18440  -0.07860  -0.17797  -0.39271
   9  C     pz       0.08302   0.00000  -0.02578   0.35352   0.01468  -1.09201
  10  C     d 1     -0.00000  -0.01715  -0.00000   0.00000   0.00000   0.00000
  11  C     d 2     -0.01608   0.00000  -0.01749   0.01035   0.00518   0.03055
  12  C     d 3     -0.03448   0.00000  -0.00484   0.02903  -0.01545  -0.03803
  13  C     d 4     -0.00000   0.02238   0.00000   0.00000  -0.00000  -0.00000
  14  C     d 5     -0.00141  -0.00000   0.01269   0.00648  -0.00969  -0.00795
  15  O     s       -0.04044   0.00000  -0.02992  -0.07962   0.03858   0.03131
  16  O     s        0.08982  -0.00000   0.06976   0.17914  -0.08157  -0.05501
  17  O     s        0.16583  -0.00000   0.13479   0.72691  -0.38250  -0.39969
  18  O     px       0.00000  -0.43645  -0.00000   0.00000  -0.00000  -0.00000
  19  O     py       0.28607  -0.00000   0.27593  -0.26571   0.08119  -0.12039
  20  O     pz      -0.44449   0.00000  -0.08511   0.01359  -0.16700  -0.34190
  21  O     px       0.00000  -0.27594  -0.00000   0.00000  -0.00000  -0.00000
  22  O     py       0.16088  -0.00000   0.14768  -0.28849   0.08930  -0.13576
  23  O     pz      -0.23621   0.00000  -0.07092  -0.02891  -0.22552  -0.52658
  24  O     d 1     -0.00000   0.00915   0.00000  -0.00000   0.00000   0.00000
  25  O     d 2      0.02009   0.00000  -0.00580  -0.01077   0.00171  -0.00987
  26  O     d 3     -0.00698   0.00000   0.00036  -0.00382   0.01553   0.00738
  27  O     d 4      0.00000   0.00313   0.00000   0.00000   0.00000   0.00000
  28  O     d 5      0.00879  -0.00000   0.01064   0.00470  -0.00307   0.00398
  29  H 1   s        0.18876   0.00000  -0.34648  -0.01114  -0.03912   0.14250
  30  H 1   s        0.01614   0.00000  -0.07323  -0.11065  -0.53572   1.00127
  31  H 1   px       0.00000   0.01143   0.00000   0.00000  -0.00000   0.00000
  32  H 1   py      -0.01636  -0.00000   0.01500  -0.00622   0.00074   0.01904
  33  H 1   pz      -0.00005  -0.00000   0.01194   0.01178  -0.00929  -0.01089
  34  H 2   s       -0.03588   0.00000  -0.17009  -0.27653   0.05544  -0.19765
  35  H 2   s        0.01635   0.00000  -0.03522  -0.94489   0.21799  -0.75841
  36  H 2   px       0.00000  -0.01730  -0.00000   0.00000  -0.00000  -0.00000
  37  H 2   py       0.00381   0.00000  -0.01279   0.01774   0.00096   0.01774
  38  H 2   pz      -0.02523   0.00000  -0.00819   0.00918  -0.01484   0.00694
  39  H 3   s        0.06462   0.30481   0.18172  -0.02012  -0.09502   0.01773
  40  H 3   s        0.02047   0.07236   0.05040  -0.25649  -0.99425   0.02262
  41  H 3   px      -0.00470  -0.00811  -0.01296  -0.00770  -0.00981   0.00765
  42  H 3   py       0.00643   0.01218  -0.00788   0.00589   0.00108  -0.00600
  43  H 3   pz       0.00459  -0.00925  -0.00524   0.01360  -0.01323  -0.02248
  44  H 4   s        0.06462  -0.30481   0.18172  -0.02012  -0.09502   0.01773
  45  H 4   s        0.02047  -0.07236   0.05040  -0.25649  -0.99425   0.02262
  46  H 4   px       0.00470  -0.00811   0.01296   0.00770   0.00981  -0.00765
  47  H 4   py       0.00643  -0.01218  -0.00788   0.00589   0.00108  -0.00600
  48  H 4   pz       0.00459   0.00925  -0.00524   0.01360  -0.01323  -0.02248
                        13        14        15        16        17        18
 eigenvalues:         -0.016    -0.003     0.270     0.277     0.304     0.357
   1  C     s       -0.00000   0.03189   0.01114   0.00000  -0.01307   0.00711
   2  C     s       -0.00000  -0.08270  -0.15146  -0.00000   0.42583   0.01829
   3  C     s        0.00000  -0.39343   0.19528   0.00000  -0.61575  -0.08910
   4  C     px       0.44493   0.00000   0.00000  -0.21333  -0.00000  -0.00000
   5  C     py       0.00000  -0.37235  -0.23857   0.00000  -0.12443  -0.31778
   6  C     pz       0.00000   0.16163   0.24425   0.00000  -0.80109   0.26835
   7  C     px       1.14592   0.00000  -0.00000   1.02753   0.00000   0.00000
   8  C     py       0.00000  -1.09578   0.79268  -0.00000   0.50409   0.98161
   9  C     pz       0.00000   0.38067  -0.41431  -0.00000   1.45559  -0.21319
  10  C     d 1      0.03823   0.00000  -0.00000   0.17346   0.00000   0.00000
  11  C     d 2     -0.00000   0.03056  -0.10337  -0.00000  -0.02156   0.11780
  12  C     d 3      0.00000   0.02295   0.02340  -0.00000  -0.06743   0.10625
  13  C     d 4     -0.03069  -0.00000   0.00000  -0.05819  -0.00000   0.00000
  14  C     d 5      0.00000  -0.05121   0.14681   0.00000   0.06602   0.02641
  15  O     s       -0.00000  -0.01787   0.01512   0.00000   0.00161  -0.01194
  16  O     s        0.00000   0.03592  -0.03586  -0.00000  -0.14237   0.12716
  17  O     s        0.00000   0.19414  -0.23677  -0.00000   0.68267  -0.39756
  18  O     px      -0.06411  -0.00000   0.00000  -0.22563  -0.00000  -0.00000
  19  O     py      -0.00000   0.12773  -0.01437   0.00000  -0.02194  -0.33556
  20  O     pz       0.00000   0.16733   0.17185   0.00000  -0.18507   0.11860
  21  O     px      -0.14542  -0.00000   0.00000  -0.09714  -0.00000  -0.00000
  22  O     py      -0.00000   0.23450  -0.09157   0.00000  -0.15976  -0.10217
  23  O     pz       0.00000   0.27200  -0.06674   0.00000   0.18372  -0.16413
  24  O     d 1      0.00730   0.00000  -0.00000   0.00962   0.00000   0.00000
  25  O     d 2      0.00000  -0.01379   0.02903   0.00000   0.00201  -0.05751
  26  O     d 3     -0.00000  -0.00667  -0.03415  -0.00000   0.07804  -0.00472
  27  O     d 4      0.01635   0.00000  -0.00000   0.01448   0.00000  -0.00000
  28  O     d 5      0.00000  -0.00448  -0.02097  -0.00000   0.00416   0.07564
  29  H 1   s       -0.00000   0.17930  -0.61909  -0.00000  -0.36972  -0.07774
  30  H 1   s       -0.00000   1.59261   0.42930   0.00000  -0.00575  -0.56449
  31  H 1   px       0.01494   0.00000  -0.00000   0.06893   0.00000   0.00000
  32  H 1   py      -0.00000   0.01308  -0.02602  -0.00000   0.00877   0.01893
  33  H 1   pz       0.00000   0.01259  -0.00629  -0.00000  -0.00785   0.05303
  34  H 2   s        0.00000   0.07279   0.38809   0.00000  -0.24345  -1.04763
  35  H 2   s        0.00000   0.35931  -0.24066  -0.00000   0.63982   1.10753
  36  H 2   px      -0.01869  -0.00000  -0.00000  -0.00218  -0.00000   0.00000
  37  H 2   py      -0.00000  -0.01062  -0.03900  -0.00000   0.02551   0.15898
  38  H 2   pz      -0.00000   0.02464  -0.05426  -0.00000  -0.12430   0.05600
  39  H 3   s       -0.16034  -0.13416   0.41730  -0.67740   0.01887  -0.01095
  40  H 3   s       -1.49552  -0.72927  -0.23010   0.26475  -0.06791   0.29617
  41  H 3   px      -0.01217  -0.02351   0.03623   0.00640   0.02039  -0.03916
  42  H 3   py       0.01980  -0.00788   0.04515   0.04544   0.01373   0.03505
  43  H 3   pz      -0.00439   0.00945   0.02101  -0.01735  -0.02214  -0.02717
  44  H 4   s        0.16034  -0.13416   0.41730   0.67740   0.01887  -0.01095
  45  H 4   s        1.49552  -0.72927  -0.23010  -0.26475  -0.06791   0.29617
  46  H 4   px      -0.01217   0.02351  -0.03623   0.00640  -0.02039   0.03916
  47  H 4   py      -0.01980  -0.00788   0.04515  -0.04544   0.01373   0.03505
  48  H 4   pz       0.00439   0.00945   0.02101   0.01735  -0.02214  -0.02717
                        19        20        21        22        23        24
 eigenvalues:          0.457     0.461     0.482     0.637     0.644     0.764
   1  C     s       -0.00000  -0.06699   0.03564  -0.00000  -0.00338  -0.08892
   2  C     s        0.00000   0.44856  -0.27181  -0.00000  -0.12513  -1.45777
   3  C     s       -0.00000  -0.54916   0.37466   0.00000   0.72388   4.24295
   4  C     px      -0.86254   0.00000   0.00000  -0.01178   0.00000   0.00000
   5  C     py      -0.00000  -0.37661  -0.69028   0.00000  -0.11894   0.05481
   6  C     pz       0.00000   0.17344  -0.15096   0.00000  -0.20230  -0.29535
   7  C     px       2.07541  -0.00000  -0.00000  -0.17300  -0.00000  -0.00000
   8  C     py       0.00000   0.85744   1.63448  -0.00000   0.10772  -0.14221
   9  C     pz      -0.00000  -0.38682   0.27973  -0.00000   0.03876   0.33530
  10  C     d 1     -0.18024   0.00000   0.00000  -0.25163   0.00000  -0.00000
  11  C     d 2      0.00000   0.05243   0.15149   0.00000  -0.23460   0.25042
  12  C     d 3      0.00000   0.11136  -0.06960   0.00000   0.06945   0.08043
  13  C     d 4      0.19696  -0.00000  -0.00000  -0.19802  -0.00000  -0.00000
  14  C     d 5     -0.00000  -0.11213  -0.16885   0.00000  -0.27137   0.07506
  15  O     s        0.00000   0.02763  -0.00790   0.00000   0.03566   0.04195
  16  O     s       -0.00000  -0.18518  -0.00768  -0.00000  -0.07666  -0.36514
  17  O     s       -0.00000  -0.03857   0.21745   0.00000  -0.47443  -0.24502
  18  O     px      -0.00429   0.00000  -0.00000  -0.71678  -0.00000   0.00000
  19  O     py       0.00000   0.08022   0.21936   0.00000  -0.52279  -0.10070
  20  O     pz      -0.00000  -0.10611   0.10092  -0.00000   0.20870   0.06297
  21  O     px      -0.15794   0.00000   0.00000   0.78934   0.00000  -0.00000
  22  O     py      -0.00000  -0.07543  -0.33189  -0.00000   0.87510   0.31711
  23  O     pz      -0.00000  -0.11317   0.01713  -0.00000  -0.30636  -0.66357
  24  O     d 1      0.00769  -0.00000  -0.00000  -0.02064  -0.00000  -0.00000
  25  O     d 2      0.00000   0.01089   0.00258  -0.00000   0.02220  -0.04695
  26  O     d 3     -0.00000  -0.01706  -0.00667  -0.00000   0.01677  -0.04094
  27  O     d 4     -0.02433   0.00000   0.00000   0.00704   0.00000   0.00000
  28  O     d 5     -0.00000  -0.02717  -0.02450  -0.00000  -0.01572  -0.01247
  29  H 1   s       -0.00000  -0.43414   0.64154  -0.00000   0.05688  -0.42128
  30  H 1   s       -0.00000  -0.34621  -1.98200   0.00000  -0.41077  -0.75986
  31  H 1   px      -0.02615   0.00000   0.00000  -0.16268  -0.00000  -0.00000
  32  H 1   py       0.00000  -0.03874   0.22097  -0.00000   0.11984   0.03785
  33  H 1   pz       0.00000   0.01627   0.11478   0.00000  -0.17318   0.12944
  34  H 2   s        0.00000   0.35937   0.19568  -0.00000   0.39772   0.12653
  35  H 2   s       -0.00000  -0.57091  -0.14522  -0.00000   0.12791  -0.30210
  36  H 2   px       0.00643  -0.00000   0.00000   0.09215   0.00000  -0.00000
  37  H 2   py      -0.00000  -0.07231  -0.09313  -0.00000   0.20062  -0.09066
  38  H 2   pz       0.00000   0.00977  -0.05461   0.00000  -0.01693   0.27347
  39  H 3   s        0.26971  -0.66711   0.17262   0.02962   0.00744  -0.35992
  40  H 3   s       -1.75141   1.06882   0.52035  -0.05093  -0.05555  -0.80217
  41  H 3   px       0.14065  -0.15696  -0.00789   0.01404  -0.10093   0.09697
  42  H 3   py      -0.09062   0.07402  -0.01526  -0.10954  -0.12561   0.02934
  43  H 3   pz       0.07918  -0.01620  -0.03806  -0.18616   0.11880   0.05124
  44  H 4   s       -0.26971  -0.66711   0.17262  -0.02962   0.00744  -0.35992
  45  H 4   s        1.75141   1.06882   0.52035   0.05093  -0.05555  -0.80217
  46  H 4   px       0.14065   0.15696   0.00789   0.01404   0.10093  -0.09697
  47  H 4   py       0.09062   0.07402  -0.01526   0.10954  -0.12561   0.02934
  48  H 4   pz      -0.07918  -0.01620  -0.03806   0.18616   0.11880   0.05124
                        25        26        27        28        29        30
 eigenvalues:          0.777     0.821     0.975     1.093     1.188     1.211
   1  C     s       -0.02808  -0.00000   0.06395  -0.00000   0.02291  -0.00000
   2  C     s       -0.55026  -0.00000   1.00633  -0.00000   0.40236  -0.00000
   3  C     s        0.22233   0.00000  -2.54341   0.00000  -0.51428   0.00000
   4  C     px       0.00000   0.13360  -0.00000  -0.00011  -0.00000   0.01233
   5  C     py      -0.16944  -0.00000  -0.05961  -0.00000  -0.00393  -0.00000
   6  C     pz       0.15199  -0.00000  -0.11733   0.00000  -0.14992   0.00000
   7  C     px       0.00000  -0.70735   0.00000  -0.57133  -0.00000  -0.16353
   8  C     py       0.40461   0.00000  -0.31955   0.00000   0.38692  -0.00000
   9  C     pz       0.96935   0.00000   0.20907   0.00000  -0.31644   0.00000
  10  C     d 1     -0.00000   0.15515   0.00000   0.22410   0.00000   0.02680
  11  C     d 2     -0.04022   0.00000   0.49180   0.00000  -0.01020  -0.00000
  12  C     d 3     -0.33297  -0.00000   0.01389  -0.00000   0.18168  -0.00000
  13  C     d 4     -0.00000   0.55037  -0.00000   0.07259  -0.00000  -0.02006
  14  C     d 5     -0.06285  -0.00000   0.04969   0.00000  -0.17982   0.00000
  15  O     s       -0.03143   0.00000   0.01135  -0.00000   0.00211  -0.00000
  16  O     s        0.24516  -0.00000   0.01043  -0.00000  -0.07638  -0.00000
  17  O     s        0.04331   0.00000   0.03720   0.00000   0.10543   0.00000
  18  O     px       0.00000  -0.46313  -0.00000  -0.23414   0.00000  -0.00582
  19  O     py      -0.09701  -0.00000  -0.38329  -0.00000   0.23115  -0.00000
  20  O     pz      -0.68645  -0.00000  -0.07240   0.00000  -0.03244   0.00000
  21  O     px      -0.00000   0.81487   0.00000   0.82471   0.00000   0.01487
  22  O     py       0.34188   0.00000   1.39214   0.00000  -0.62500   0.00000
  23  O     pz       1.58296   0.00000   0.46819   0.00000  -0.56774   0.00000
  24  O     d 1      0.00000  -0.01474   0.00000   0.19140   0.00000  -0.01268
  25  O     d 2      0.00214  -0.00000  -0.09104   0.00000  -0.10545   0.00000
  26  O     d 3     -0.03849  -0.00000   0.00353  -0.00000   0.01142  -0.00000
  27  O     d 4      0.00000  -0.10549   0.00000   0.01339  -0.00000  -0.00716
  28  O     d 5      0.01127  -0.00000  -0.09605   0.00000  -0.00807   0.00000
  29  H 1   s       -0.18228  -0.00000   0.26562  -0.00000  -0.04831  -0.00000
  30  H 1   s       -0.51968  -0.00000   0.36852  -0.00000   0.01274  -0.00000
  31  H 1   px      -0.00000   0.12504  -0.00000  -0.10142  -0.00000  -0.52483
  32  H 1   py       0.09258   0.00000  -0.04947  -0.00000   0.19247  -0.00000
  33  H 1   pz      -0.10737   0.00000   0.09437   0.00000  -0.37315   0.00000
  34  H 2   s        0.06297   0.00000   0.76358   0.00000  -0.40676   0.00000
  35  H 2   s        0.94459   0.00000   0.37214  -0.00000  -0.09650   0.00000
  36  H 2   px      -0.00000   0.26493  -0.00000  -0.92851  -0.00000   0.04827
  37  H 2   py       0.14071  -0.00000   0.04257   0.00000  -0.32248   0.00000
  38  H 2   pz       0.15583   0.00000   0.37075  -0.00000   0.56524  -0.00000
  39  H 3   s       -0.04970   0.04432   0.33320   0.18570   0.24160   0.06660
  40  H 3   s       -0.22121   0.25824   0.28627   0.21956   0.16998   0.04517
  41  H 3   px      -0.00682  -0.04139   0.03818  -0.02825  -0.04007   0.34357
  42  H 3   py      -0.00797   0.09590   0.11769   0.00806   0.14895   0.52960
  43  H 3   pz       0.01370   0.19946  -0.02565   0.10088   0.34709  -0.03444
  44  H 4   s       -0.04970  -0.04432   0.33320  -0.18570   0.24160  -0.06660
  45  H 4   s       -0.22121  -0.25824   0.28627  -0.21956   0.16998  -0.04517
  46  H 4   px       0.00682  -0.04139  -0.03818  -0.02825   0.04007   0.34357
  47  H 4   py      -0.00797  -0.09590   0.11769  -0.00806   0.14895  -0.52960
  48  H 4   pz       0.01370  -0.19946  -0.02565  -0.10088   0.34709   0.03444
                        31        32        33        34        35        36
 eigenvalues:          1.386     1.415     1.446     1.446     1.511     1.646
   1  C     s       -0.00000   0.01779   0.00977  -0.00000  -0.05266   0.00665
   2  C     s       -0.00000  -0.00121  -0.03273   0.00000  -0.41957  -0.05004
   3  C     s        0.00000  -0.45409  -0.19860   0.00000   2.20610  -0.83761
   4  C     px       0.09154  -0.00000   0.00000   0.13217  -0.00000   0.00000
   5  C     py       0.00000   0.06588  -0.08957   0.00000  -0.01907  -0.04313
   6  C     pz       0.00000   0.10391   0.08115  -0.00000  -0.23659   0.26614
   7  C     px      -1.19937   0.00000  -0.00000  -0.35366  -0.00000   0.00000
   8  C     py      -0.00000  -0.91223   0.77471  -0.00000  -0.49418  -0.86865
   9  C     pz       0.00000   0.82942   0.89078  -0.00000  -0.60963  -0.01721
  10  C     d 1      0.38316  -0.00000   0.00000   0.56375   0.00000   0.00000
  11  C     d 2     -0.00000  -0.12106   0.45174  -0.00000   0.20181   0.58562
  12  C     d 3     -0.00000  -0.67981  -0.55912   0.00000   0.55700  -0.10817
  13  C     d 4      0.17204   0.00000  -0.00000  -0.70592   0.00000   0.00000
  14  C     d 5      0.00000   0.42102  -0.54019   0.00000  -0.12788   0.02102
  15  O     s       -0.00000  -0.03362  -0.03199   0.00000   0.03988  -0.00875
  16  O     s       -0.00000  -0.21423  -0.04220   0.00000   1.30408  -0.64631
  17  O     s        0.00000   1.20309   0.81781  -0.00000  -2.93351   1.04293
  18  O     px      -0.05548   0.00000  -0.00000  -0.14650   0.00000   0.00000
  19  O     py      -0.00000  -0.16068   0.11277  -0.00000   0.11248   0.00498
  20  O     pz       0.00000   0.36257   0.33196  -0.00000   0.06450  -0.13658
  21  O     px       0.39269  -0.00000  -0.00000  -0.03173   0.00000  -0.00000
  22  O     py       0.00000   0.24898  -0.30200   0.00000   0.59618   0.26578
  23  O     pz       0.00000   0.13520   0.06840  -0.00000  -0.74074   0.93214
  24  O     d 1      0.04118  -0.00000  -0.00000  -0.01855   0.00000   0.00000
  25  O     d 2     -0.00000  -0.01670  -0.07182   0.00000  -0.01121  -0.02692
  26  O     d 3     -0.00000  -0.04020  -0.02763   0.00000   0.13439  -0.06612
  27  O     d 4     -0.12209  -0.00000   0.00000   0.17727  -0.00000   0.00000
  28  O     d 5      0.00000   0.03249  -0.03851   0.00000  -0.16291   0.07274
  29  H 1   s        0.00000   0.39143  -0.85654   0.00000  -0.13298   0.11416
  30  H 1   s       -0.00000   0.15844  -0.06656   0.00000   0.03863   0.61199
  31  H 1   px       0.50724  -0.00000  -0.00000  -0.02970  -0.00000  -0.00000
  32  H 1   py       0.00000   0.29593  -0.21898   0.00000   0.15482   0.04347
  33  H 1   pz      -0.00000  -0.37313  -0.35438   0.00000  -0.38586  -0.30981
  34  H 2   s       -0.00000  -0.02023  -0.17702   0.00000   0.59862   0.04685
  35  H 2   s       -0.00000  -0.05311   0.19812  -0.00000   0.04050  -0.01017
  36  H 2   px      -0.04710  -0.00000   0.00000   0.25129  -0.00000   0.00000
  37  H 2   py      -0.00000  -0.08528  -0.01447   0.00000   0.35717   0.29414
  38  H 2   pz      -0.00000  -0.01928   0.06480  -0.00000  -0.05072  -0.68375
  39  H 3   s        0.42991  -0.43090   0.16110   0.55465  -0.16986   0.05538
  40  H 3   s        0.32251  -0.05730  -0.02879  -0.18777  -0.30803  -0.19685
  41  H 3   px       0.37689  -0.02930   0.05095   0.10002   0.15958   0.07118
  42  H 3   py      -0.03574   0.28906  -0.14467  -0.12312   0.28087   0.18115
  43  H 3   pz      -0.47278  -0.12445  -0.18194   0.40596  -0.09271   0.46134
  44  H 4   s       -0.42991  -0.43090   0.16110  -0.55465  -0.16986   0.05538
  45  H 4   s       -0.32251  -0.05730  -0.02879   0.18777  -0.30803  -0.19685
  46  H 4   px       0.37689   0.02930  -0.05095   0.10002  -0.15958  -0.07118
  47  H 4   py       0.03574   0.28906  -0.14467   0.12312   0.28087   0.18115
  48  H 4   pz       0.47278  -0.12445  -0.18194  -0.40596  -0.09271   0.46134
                        37        38        39        40        41        42
 eigenvalues:          1.750     1.825     1.871     1.918     2.179     2.199
   1  C     s        0.00938   0.01832  -0.00000  -0.00045  -0.00000   0.04879
   2  C     s        0.03322   0.36220  -0.00000   0.05261   0.00000  -1.01156
   3  C     s       -0.15201  -0.90571   0.00000  -0.01407   0.00000  -1.82655
   4  C     px       0.00000  -0.00000  -0.14706   0.00000  -1.24801  -0.00000
   5  C     py       0.07253   0.02219  -0.00000  -0.24465  -0.00000   0.47806
   6  C     pz      -0.20279   0.30678  -0.00000   0.13925   0.00000  -0.46537
   7  C     px      -0.00000  -0.00000  -0.79150   0.00000  -1.14106  -0.00000
   8  C     py      -0.05339  -0.06940  -0.00000  -0.64326  -0.00000   0.31828
   9  C     pz      -0.38759   0.91157  -0.00000  -0.01360   0.00000  -0.21509
  10  C     d 1     -0.00000  -0.00000  -0.81829   0.00000   1.10949   0.00000
  11  C     d 2     -0.18179  -0.15011  -0.00000  -0.54575  -0.00000   0.17104
  12  C     d 3     -0.46359   0.44308  -0.00000  -0.12510  -0.00000   0.66197
  13  C     d 4      0.00000  -0.00000  -0.50437   0.00000  -0.61410  -0.00000
  14  C     d 5     -0.38851  -0.22200  -0.00000  -0.68746   0.00000  -0.55249
  15  O     s        0.02044   0.00140  -0.00000  -0.02497   0.00000  -0.00803
  16  O     s        0.03036  -1.11349   0.00000  -0.06311   0.00000  -0.35823
  17  O     s       -0.73732   1.39627  -0.00000   0.80748  -0.00000   0.57525
  18  O     px       0.00000  -0.00000  -0.12709   0.00000  -0.03557  -0.00000
  19  O     py       0.38743   0.26422  -0.00000  -0.38324   0.00000  -0.04021
  20  O     pz       0.28456  -0.12838  -0.00000  -0.09646   0.00000  -0.20551
  21  O     px       0.00000   0.00000   0.26725  -0.00000   0.06435   0.00000
  22  O     py       0.03450  -0.01649  -0.00000  -0.19803   0.00000  -0.13169
  23  O     pz      -0.12705   0.57203  -0.00000  -0.00957  -0.00000   0.22402
  24  O     d 1      0.00000  -0.00000  -0.11440   0.00000   0.14887   0.00000
  25  O     d 2      0.13432   0.06399   0.00000   0.11274   0.00000  -0.02090
  26  O     d 3      0.01476  -0.05255   0.00000   0.02232  -0.00000  -0.04536
  27  O     d 4     -0.00000   0.00000   0.17454  -0.00000   0.14365   0.00000
  28  O     d 5     -0.10885  -0.05190   0.00000   0.12052   0.00000  -0.00069
  29  H 1   s       -0.08421   0.01626   0.00000   0.09074   0.00000   0.19583
  30  H 1   s        0.11914  -0.04520   0.00000   0.43396   0.00000   0.15157
  31  H 1   px      -0.00000   0.00000   0.95771  -0.00000  -0.00379   0.00000
  32  H 1   py      -0.18308   0.35013  -0.00000  -0.27017  -0.00000  -0.30840
  33  H 1   pz       0.56918  -0.27374   0.00000   0.25597  -0.00000  -0.15035
  34  H 2   s        0.17392  -0.01601  -0.00000  -0.40959   0.00000  -0.10457
  35  H 2   s        0.23761   0.33543  -0.00000  -0.31304   0.00000  -0.09560
  36  H 2   px      -0.00000  -0.00000  -0.15476   0.00000   0.15842   0.00000
  37  H 2   py       0.78207   0.53350  -0.00000  -0.64566   0.00000  -0.11968
  38  H 2   pz       0.32689   0.23262  -0.00000  -0.22606   0.00000  -0.11690
  39  H 3   s        0.05160   0.11239   0.04354  -0.10317   1.15287   0.96914
  40  H 3   s        0.07411  -0.10305   0.39734  -0.21357   0.70740   0.51405
  41  H 3   px      -0.04968   0.33410   0.08866   0.54105  -0.93050  -0.82299
  42  H 3   py       0.36328   0.03211   0.47265   0.47400   0.51638   0.57809
  43  H 3   pz       0.24319  -0.45054   0.26414  -0.06640  -0.41474  -0.43501
  44  H 4   s        0.05160   0.11239  -0.04354  -0.10317  -1.15287   0.96914
  45  H 4   s        0.07411  -0.10305  -0.39734  -0.21357  -0.70740   0.51405
  46  H 4   px       0.04968  -0.33410   0.08866  -0.54105  -0.93050   0.82299
  47  H 4   py       0.36328   0.03211  -0.47265   0.47400  -0.51638   0.57809
  48  H 4   pz       0.24319  -0.45054  -0.26414  -0.06640   0.41474  -0.43501
                        43        44        45        46        47        48
 eigenvalues:          2.226     2.595     2.689     2.762     2.892     3.355
   1  C     s       -0.01802   0.00000  -0.00000   0.02316  -0.03983  -0.01244
   2  C     s        0.36857  -0.00000   0.00000  -0.27775   0.15056   0.03462
   3  C     s        0.60899  -0.00000   0.00000  -0.71872   0.76625   0.06981
   4  C     px      -0.00000  -0.18055  -0.21940  -0.00000   0.00000  -0.00000
   5  C     py       1.13779   0.00000   0.00000  -0.20440  -0.02099  -0.02697
   6  C     pz       0.35258   0.00000  -0.00000   0.43463  -0.44621  -0.11998
   7  C     px      -0.00000  -0.30423   0.03924   0.00000   0.00000  -0.00000
   8  C     py       0.98499  -0.00000  -0.00000  -0.13449  -0.11156   0.03826
   9  C     pz       0.21760   0.00000  -0.00000   0.27925  -0.51807  -0.20260
  10  C     d 1      0.00000   0.40274   0.15002   0.00000  -0.00000   0.00000
  11  C     d 2      0.66224  -0.00000   0.00000  -0.50923  -0.48778   0.02485
  12  C     d 3     -0.27232  -0.00000   0.00000  -0.41601   0.42512   0.17926
  13  C     d 4     -0.00000   0.17648  -0.78625  -0.00000   0.00000  -0.00000
  14  C     d 5     -1.02744  -0.00000  -0.00000   0.17075  -0.04073   0.13549
  15  O     s       -0.01181  -0.00000   0.00000  -0.04514   0.03872  -0.03751
  16  O     s        0.08882  -0.00000   0.00000  -0.52757   0.40554  -0.08011
  17  O     s        0.23195   0.00000  -0.00000   1.55406  -1.35874   1.13940
  18  O     px      -0.00000  -0.04593   0.01452   0.00000   0.00000   0.00000
  19  O     py      -0.09554  -0.00000   0.00000  -0.05441   0.08827  -0.30279
  20  O     pz       0.01254  -0.00000   0.00000  -0.05633  -0.01522  -0.12029
  21  O     px       0.00000   0.34511  -0.20365  -0.00000   0.00000  -0.00000
  22  O     py      -0.18570  -0.00000   0.00000  -0.52814  -0.06055  -1.00360
  23  O     pz       0.09118   0.00000  -0.00000   0.69235  -0.58782  -0.55837
  24  O     d 1      0.00000  -1.00325  -0.16807   0.00000   0.00000  -0.00000
  25  O     d 2     -0.10310  -0.00000   0.00000  -0.61794  -0.63477   0.67357
  26  O     d 3      0.02085  -0.00000  -0.00000   0.45921  -0.90121  -0.53655
  27  O     d 4      0.00000   0.14672  -0.99603  -0.00000   0.00000  -0.00000
  28  O     d 5     -0.10987  -0.00000   0.00000  -0.68479   0.00942  -0.91780
  29  H 1   s       -1.53528   0.00000  -0.00000   0.34346   0.18686   0.10346
  30  H 1   s       -0.87144   0.00000   0.00000   0.16387   0.06138   0.08842
  31  H 1   px       0.00000  -0.14090   0.07450  -0.00000  -0.00000  -0.00000
  32  H 1   py       1.42242  -0.00000   0.00000  -0.32220  -0.17204  -0.06184
  33  H 1   pz       0.67688   0.00000   0.00000   0.06975   0.10764  -0.14161
  34  H 2   s       -0.16516  -0.00000   0.00000  -0.50716   0.17872  -1.46982
  35  H 2   s        0.00865   0.00000   0.00000   0.00032  -0.12565  -0.37763
  36  H 2   px       0.00000  -0.49306  -0.14821  -0.00000   0.00000  -0.00000
  37  H 2   py      -0.20688   0.00000   0.00000  -0.11825   0.23951  -1.02951
  38  H 2   pz      -0.19816  -0.00000   0.00000  -0.36326  -0.22644  -0.34742
  39  H 3   s        0.32447   0.21686   0.29303  -0.15895  -0.07593  -0.00532
  40  H 3   s        0.19666   0.12875   0.00331  -0.00085  -0.05172   0.03934
  41  H 3   px      -0.19262  -0.12742  -0.24768   0.12027   0.10797  -0.02767
  42  H 3   py       0.14509  -0.01290   0.16940  -0.02794   0.05393  -0.05586
  43  H 3   pz      -0.07292  -0.15275   0.16540   0.03249  -0.05248   0.05573
  44  H 4   s        0.32447  -0.21686  -0.29303  -0.15895  -0.07593  -0.00532
  45  H 4   s        0.19666  -0.12875  -0.00331  -0.00085  -0.05172   0.03934
  46  H 4   px       0.19262  -0.12742  -0.24768  -0.12027  -0.10797   0.02767
  47  H 4   py       0.14509   0.01290  -0.16940  -0.02794   0.05393  -0.05586
  48  H 4   pz      -0.07292   0.15275  -0.16540   0.03249  -0.05248   0.05573


                        BETA  MOLECULAR ORBITAL COEFFICIENTS
                         1         2         3         4         5         6
[...]
  14  C     d 5     -0.39708  -0.23971  -0.00000   0.67567   0.00000  -0.49476
  15  O     s        0.02268   0.00399  -0.00000   0.02791  -0.00000  -0.00723
  16  O     s        0.08427  -1.13033   0.00000   0.07655  -0.00000  -0.37152
  17  O     s       -0.84242   1.38351   0.00000  -0.87940   0.00000   0.57278
  18  O     px      -0.00000  -0.00000  -0.13416  -0.00000  -0.03932   0.00000
  19  O     py       0.37966   0.27501  -0.00000   0.39981  -0.00000  -0.03330
  20  O     pz       0.28950  -0.12229  -0.00000   0.10571  -0.00000  -0.20677
  21  O     px       0.00000  -0.00000   0.26031   0.00000   0.06957   0.00000
  22  O     py       0.05687  -0.00988  -0.00000   0.20988  -0.00000  -0.12200
  23  O     pz      -0.16379   0.56770   0.00000  -0.01755   0.00000   0.22282
  24  O     d 1      0.00000  -0.00000  -0.10791  -0.00000   0.13333   0.00000
  25  O     d 2      0.13284   0.06911   0.00000  -0.10616   0.00000  -0.01461
  26  O     d 3      0.01369  -0.06213   0.00000  -0.02867  -0.00000  -0.04948
  27  O     d 4     -0.00000   0.00000   0.16308   0.00000   0.13033   0.00000
  28  O     d 5     -0.09811  -0.03960   0.00000  -0.11184   0.00000   0.00596
  29  H 1   s       -0.08295   0.00643   0.00000  -0.09534   0.00000   0.27831
  30  H 1   s        0.13581  -0.04003   0.00000  -0.43641   0.00000   0.19619
  31  H 1   px       0.00000   0.00000   0.95166   0.00000   0.00467   0.00000
  32  H 1   py      -0.18866   0.34512  -0.00000   0.26555  -0.00000  -0.38005
  33  H 1   pz       0.56992  -0.25025   0.00000  -0.24474  -0.00000  -0.18443
  34  H 2   s        0.19695  -0.00122  -0.00000   0.43399  -0.00000  -0.09597
  35  H 2   s        0.21820   0.33466  -0.00000   0.31875  -0.00000  -0.09282
  36  H 2   px      -0.00000   0.00000  -0.14877  -0.00000   0.14479  -0.00000
  37  H 2   py       0.76904   0.55357  -0.00000   0.67097  -0.00000  -0.10457
  38  H 2   pz       0.31380   0.23872  -0.00000   0.24842  -0.00000  -0.10319
  39  H 3   s        0.04214   0.11433   0.03405   0.10355   1.16248   0.95497
  40  H 3   s        0.06236  -0.10316   0.38228   0.21325   0.70915   0.50308
  41  H 3   px      -0.04080   0.33776   0.09817  -0.53745  -0.93492  -0.81309
  42  H 3   py       0.38241   0.04031   0.47061  -0.47027   0.52463   0.56916
  43  H 3   pz       0.25846  -0.43889   0.28028   0.06472  -0.41049  -0.43025
  44  H 4   s        0.04214   0.11433  -0.03405   0.10355  -1.16248   0.95497
  45  H 4   s        0.06236  -0.10316  -0.38228   0.21325  -0.70915   0.50308
  46  H 4   px       0.04080  -0.33776   0.09817   0.53745  -0.93492   0.81309
  47  H 4   py       0.38241   0.04031  -0.47061  -0.47027  -0.52463   0.56916
  48  H 4   pz       0.25846  -0.43889  -0.28028   0.06472   0.41049  -0.43025
                        43        44        45        46        47        48
 eigenvalues:          2.227     2.653     2.743     2.809     2.919     3.376
   1  C     s       -0.01568   0.00000  -0.00000   0.01523  -0.04310  -0.01114
   2  C     s        0.31762   0.00000   0.00000  -0.24021   0.19624   0.02568
   3  C     s        0.52155  -0.00000  -0.00000  -0.55240   0.87335   0.03794
   4  C     px      -0.00000  -0.16488  -0.19912  -0.00000   0.00000  -0.00000
   5  C     py       1.16432  -0.00000   0.00000  -0.19199   0.01074  -0.03036
   6  C     pz       0.32213  -0.00000  -0.00000   0.34130  -0.51280  -0.10032
   7  C     px      -0.00000  -0.29111   0.05546   0.00000   0.00000  -0.00000
   8  C     py       1.00385  -0.00000  -0.00000  -0.14169  -0.08783   0.03847
   9  C     pz       0.20113   0.00000  -0.00000   0.18188  -0.55855  -0.18464
  10  C     d 1      0.00000   0.37762   0.14040   0.00000  -0.00000   0.00000
  11  C     d 2      0.67550  -0.00000   0.00000  -0.57803  -0.38925   0.02124
  12  C     d 3     -0.23231  -0.00000   0.00000  -0.32377   0.48731   0.16102
  13  C     d 4     -0.00000   0.18124  -0.75670  -0.00000   0.00000  -0.00000
  14  C     d 5     -1.05349  -0.00000  -0.00000   0.14847  -0.06420   0.13945
  15  O     s       -0.01141  -0.00000   0.00000  -0.03253   0.04239  -0.03792
  16  O     s        0.07893  -0.00000   0.00000  -0.44870   0.49654  -0.10774
  17  O     s        0.23471   0.00000  -0.00000   1.20740  -1.55413   1.19475
  18  O     px      -0.00000  -0.04418   0.01555   0.00000   0.00000   0.00000
  19  O     py      -0.09642  -0.00000   0.00000  -0.02124   0.08236  -0.30366
  20  O     pz       0.00307  -0.00000   0.00000  -0.05216  -0.00942  -0.12121
  21  O     px       0.00000   0.33901  -0.19924  -0.00000   0.00000  -0.00000
  22  O     py      -0.18395   0.00000   0.00000  -0.48794   0.00002  -1.00880
  23  O     pz       0.09416   0.00000  -0.00000   0.57787  -0.70829  -0.52669
  24  O     d 1      0.00000  -1.00729  -0.17848   0.00000   0.00000  -0.00000
  25  O     d 2     -0.10087  -0.00000   0.00000  -0.74206  -0.49514   0.66730
  26  O     d 3      0.01573  -0.00000  -0.00000   0.30291  -0.98410  -0.50272
  27  O     d 4      0.00000   0.15649  -1.00209  -0.00000   0.00000  -0.00000
  28  O     d 5     -0.10503   0.00000   0.00000  -0.65258   0.11313  -0.94147
  29  H 1   s       -1.52570   0.00000  -0.00000   0.35422   0.12800   0.10681
  30  H 1   s       -0.86537   0.00000   0.00000   0.15854   0.03711   0.08910
  31  H 1   px       0.00000  -0.13239   0.06716  -0.00000  -0.00000  -0.00000
  32  H 1   py       1.40743  -0.00000   0.00000  -0.33088  -0.11742  -0.06462
  33  H 1   pz       0.66717  -0.00000   0.00000   0.09388   0.08809  -0.14006
  34  H 2   s       -0.16122   0.00000   0.00000  -0.40585   0.21474  -1.47656
  35  H 2   s        0.00541   0.00000   0.00000  -0.00638  -0.13634  -0.37110
  36  H 2   px       0.00000  -0.48107  -0.15094  -0.00000   0.00000  -0.00000
  37  H 2   py      -0.20847   0.00000   0.00000  -0.02587   0.21563  -1.02644
  38  H 2   pz      -0.19833  -0.00000   0.00000  -0.37827  -0.17183  -0.34883
  39  H 3   s        0.37725   0.19953   0.27384  -0.16300  -0.04981  -0.00751
  40  H 3   s        0.22398   0.12063  -0.00683  -0.00882  -0.05054   0.04049
  41  H 3   px      -0.23869  -0.11348  -0.23233   0.13402   0.08585  -0.02671
  42  H 3   py       0.17376  -0.01561   0.15704  -0.01479   0.05518  -0.05742
  43  H 3   pz      -0.09607  -0.14460   0.16234   0.01690  -0.05344   0.05688
  44  H 4   s        0.37725  -0.19953  -0.27384  -0.16300  -0.04981  -0.00751
  45  H 4   s        0.22398  -0.12063   0.00683  -0.00882  -0.05054   0.04049
  46  H 4   px       0.23869  -0.11348  -0.23233  -0.13402  -0.08585   0.02671
  47  H 4   py       0.17376   0.01561  -0.15704  -0.01479   0.05518  -0.05742
  48  H 4   pz      -0.09607   0.14460  -0.16234   0.01690  -0.05344   0.05688

          Ground-State Mulliken Net Atomic Charges

     Atom                 Charge (a.u.)    Spin (a.u.)
  --------------------------------------------------------
      1 C                    -0.017897       0.019427
      2 O                     0.147158       0.787391
      3 H                     0.177133      -0.002790
      4 H                     0.275365      -0.018891
      5 H                     0.209121       0.107432
      6 H                     0.209121       0.107432
  --------------------------------------------------------
  Sum of atomic charges =     1.000000
  Sum of spin   charges =     1.000000

         TDA Excited State  1:  Mulliken Net Atomic Charges

     Atom                 Charge (a.u.)    Spin (a.u.)
  --------------------------------------------------------
      1 C                     0.147005       0.184189
      2 O                    -0.161969       0.478145
      3 H                     0.325522       0.145590
      4 H                     0.323138       0.028906
      5 H                     0.183152       0.081586
      6 H                     0.183152       0.081586
  --------------------------------------------------------
  Sum of atomic charges =     1.000000
  Sum of spin   charges =     1.000000

         TDA Excited State  2:  Mulliken Net Atomic Charges

     Atom                 Charge (a.u.)    Spin (a.u.)
  --------------------------------------------------------
      1 C                     0.245505       0.282946
      2 O                    -0.121463       0.518370
      3 H                     0.337901       0.158004
      4 H                     0.276154      -0.017924
      5 H                     0.130951       0.029302
      6 H                     0.130951       0.029302
  --------------------------------------------------------
  Sum of atomic charges =     1.000000
  Sum of spin   charges =     1.000000

         TDA Excited State  3:  Mulliken Net Atomic Charges

     Atom                 Charge (a.u.)    Spin (a.u.)
  --------------------------------------------------------
      1 C                     0.328217       0.382322
      2 O                    -0.294846       0.327697
      3 H                     0.178969      -0.001587
      4 H                     0.268810      -0.024227
      5 H                     0.259425       0.157897
      6 H                     0.259425       0.157897
  --------------------------------------------------------
  Sum of atomic charges =     1.000000
  Sum of spin   charges =     1.000000

         TDA Excited State  4:  Mulliken Net Atomic Charges

     Atom                 Charge (a.u.)    Spin (a.u.)
  --------------------------------------------------------
      1 C                     0.129890       0.168782
      2 O                    -0.091660       0.546255
      3 H                     0.179077      -0.001062
      4 H                     0.415930       0.122334
      5 H                     0.183381       0.081845
      6 H                     0.183381       0.081845
  --------------------------------------------------------
  Sum of atomic charges =     1.000000
  Sum of spin   charges =     1.000000

         TDA Excited State  5:  Mulliken Net Atomic Charges

     Atom                 Charge (a.u.)    Spin (a.u.)
  --------------------------------------------------------
      1 C                    -0.003681       0.040523
      2 O                     0.413453       0.862098
      3 H                     0.340443       0.023025
      4 H                    -0.204056      -0.138421
      5 H                     0.226921       0.106388
      6 H                     0.226921       0.106388
  --------------------------------------------------------
  Sum of atomic charges =     1.000000
  Sum of spin   charges =     1.000000

         TDA Excited State  6:  Mulliken Net Atomic Charges

     Atom                 Charge (a.u.)    Spin (a.u.)
  --------------------------------------------------------
      1 C                     0.079498       0.035188
      2 O                     0.366152       0.773635
      3 H                     0.367095      -0.065120
      4 H                    -0.242879       0.060647
      5 H                     0.215067       0.097825
      6 H                     0.215067       0.097825
  --------------------------------------------------------
  Sum of atomic charges =     1.000000
  Sum of spin   charges =     1.000000

 -----------------------------------------------------------------
                    Cartesian Multipole Moments
 -----------------------------------------------------------------
    Charge (ESU x 10^10)
                 4.8032
    Dipole Moment (Debye)
         X      -0.0000      Y      -2.0600      Z       0.9025
       Tot       2.2490
    Quadrupole Moments (Debye-Ang)
        XX      -9.5511     XY       0.0000     YY      -8.6760
        XZ      -0.0000     YZ       1.9735     ZZ      -6.4042
    Octopole Moments (Debye-Ang^2)
       XXX      -0.0000    XXY      -1.2864    XYY      -0.0000
       YYY      -0.3966    XXZ       0.2111    XYZ       0.0000
       YYZ      -1.9772    XZZ      -0.0000    YZZ      -2.3785
       ZZZ      -3.5851
    Hexadecapole Moments (Debye-Ang^3)
      XXXX     -12.0331   XXXY       0.0000   XXYY      -4.4075
      XYYY       0.0000   YYYY     -13.1299   XXXZ      -0.0000
      XXYZ      -1.6545   XYYZ      -0.0000   YYYZ       3.1447
      XXZZ      -8.2094   XYZZ       0.0000   YYZZ      -7.3280
      XZZZ      -0.0000   YZZZ       2.1836   ZZZZ     -44.3499
 -----------------------------------------------------------------
 -----------------------------------------------------------------
                 TDA Excited-State Multipoles, State    1   
 -----------------------------------------------------------------
    Charge (ESU x 10^10)
                 4.8032
    Dipole Moment (Debye)
         X       0.0000      Y      -1.1361      Z       2.6248
       Tot       2.8601
    Quadrupole Moments (Debye-Ang)
        XX     -10.7034     XY      -0.0000     YY      -6.9431
        XZ       0.0000     YZ       2.6920     ZZ      -5.5174
    Octopole Moments (Debye-Ang^2)
       XXX      -0.0000    XXY      -1.0742    XYY      -0.0000
       YYY       0.6026    XXZ       0.3834    XYZ      -0.0000
       YYZ      -0.9109    XZZ       0.0000    YZZ      -1.1536
       ZZZ      -2.0728
    Hexadecapole Moments (Debye-Ang^3)
      XXXX     -13.6071   XXXY       0.0000   XXYY      -4.3448
      XYYY       0.0000   YYYY     -10.3770   XXXZ      -0.0000
      XXYZ      -1.3974   XYYZ      -0.0000   YYYZ       4.3656
      XXZZ      -9.2490   XYZZ      -0.0000   YYZZ      -5.2076
      XZZZ       0.0000   YZZZ       3.2656   ZZZZ     -42.1901
 -----------------------------------------------------------------
 -----------------------------------------------------------------
                 TDA Excited-State Multipoles, State    2   
 -----------------------------------------------------------------
    Charge (ESU x 10^10)
                 4.8032
    Dipole Moment (Debye)
         X       0.0000      Y      -0.6340      Z       2.4250
       Tot       2.5065
    Quadrupole Moments (Debye-Ang)
        XX     -11.0300     XY       0.0000     YY      -7.6257
        XZ       0.0000     YZ       3.5394     ZZ      -5.4726
    Octopole Moments (Debye-Ang^2)
       XXX      -0.0000    XXY      -0.6878    XYY      -0.0000
       YYY       1.2406    XXZ      -0.0166    XYZ      -0.0000
       YYZ      -1.0106    XZZ       0.0000    YZZ       0.0980
       ZZZ      -2.5427
    Hexadecapole Moments (Debye-Ang^3)
      XXXX     -14.1806   XXXY       0.0000   XXYY      -4.6465
      XYYY       0.0000   YYYY     -11.3240   XXXZ       0.0000
      XXYZ      -0.9284   XYYZ       0.0000   YYYZ       4.8722
      XXZZ      -9.6445   XYZZ       0.0000   YYZZ      -5.9747
      XZZZ       0.0000   YZZZ       4.9280   ZZZZ     -40.9199
 -----------------------------------------------------------------
 -----------------------------------------------------------------
                 TDA Excited-State Multipoles, State    3   
 -----------------------------------------------------------------
    Charge (ESU x 10^10)
                 4.8032
    Dipole Moment (Debye)
         X      -0.0000      Y      -2.4463      Z       3.9324
       Tot       4.6312
    Quadrupole Moments (Debye-Ang)
        XX      -8.8249     XY       0.0000     YY      -8.4929
        XZ      -0.0000     YZ       1.8686     ZZ      -6.6024
    Octopole Moments (Debye-Ang^2)
       XXX      -0.0000    XXY      -1.5087    XYY      -0.0000
       YYY      -0.5174    XXZ       1.5412    XYZ       0.0000
       YYZ      -1.5125    XZZ      -0.0000    YZZ      -2.5903
       ZZZ      -1.0109
    Hexadecapole Moments (Debye-Ang^3)
      XXXX     -10.8546   XXXY       0.0000   XXYY      -4.2037
      XYYY       0.0000   YYYY     -13.0585   XXXZ      -0.0000
      XXYZ      -1.7349   XYYZ      -0.0000   YYYZ       3.0745
      XXZZ      -7.9498   XYZZ       0.0000   YYZZ      -7.3005
      XZZZ      -0.0000   YZZZ       2.0687   ZZZZ     -44.5814
 -----------------------------------------------------------------
 -----------------------------------------------------------------
                 TDA Excited-State Multipoles, State    4   
 -----------------------------------------------------------------
    Charge (ESU x 10^10)
                 4.8032
    Dipole Moment (Debye)
         X      -0.0000      Y      -2.4957      Z       1.4265
       Tot       2.8746
    Quadrupole Moments (Debye-Ang)
        XX     -10.7201     XY      -0.0000     YY      -7.5981
        XZ      -0.0000     YZ       2.4277     ZZ      -6.4804
    Octopole Moments (Debye-Ang^2)
       XXX      -0.0000    XXY      -1.2497    XYY      -0.0000
       YYY      -1.0115    XXZ       0.1966    XYZ       0.0000
       YYZ      -2.4213    XZZ      -0.0000    YZZ      -3.3459
       ZZZ      -3.4348
    Hexadecapole Moments (Debye-Ang^3)
      XXXX     -13.6981   XXXY       0.0000   XXYY      -4.5182
      XYYY       0.0000   YYYY     -11.7019   XXXZ      -0.0000
      XXYZ      -1.3839   XYYZ      -0.0000   YYYZ       3.5723
      XXZZ      -9.3963   XYZZ       0.0000   YYZZ      -6.5345
      XZZZ      -0.0000   YZZZ       2.8750   ZZZZ     -43.7427
 -----------------------------------------------------------------
 -----------------------------------------------------------------
                 TDA Excited-State Multipoles, State    5   
 -----------------------------------------------------------------
    Charge (ESU x 10^10)
                 4.8032
    Dipole Moment (Debye)
         X       0.0000      Y       1.3822      Z       4.2101
       Tot       4.4312
    Quadrupole Moments (Debye-Ang)
        XX     -11.2304     XY      -0.0000     YY     -11.3828
        XZ       0.0000     YZ      -0.2288     ZZ      -7.8260
    Octopole Moments (Debye-Ang^2)
       XXX       0.0000    XXY       0.2991    XYY       0.0000
       YYY       7.5697    XXZ       1.8891    XYZ      -0.0000
       YYZ       3.5235    XZZ       0.0000    YZZ       2.5716
       ZZZ       3.6091
    Hexadecapole Moments (Debye-Ang^3)
      XXXX     -17.2579   XXXY      -0.0000   XXYY      -7.0820
      XYYY      -0.0000   YYYY     -25.4030   XXXZ       0.0000
      XXYZ      -2.9858   XYYZ       0.0000   YYYZ      -2.0697
      XXZZ     -10.1052   XYZZ      -0.0000   YYZZ     -11.1661
      XZZZ       0.0000   YZZZ      -3.6285   ZZZZ     -55.6641
 -----------------------------------------------------------------
 -----------------------------------------------------------------
                 TDA Excited-State Multipoles, State    6   
 -----------------------------------------------------------------
    Charge (ESU x 10^10)
                 4.8032
    Dipole Moment (Debye)
         X       0.0000      Y       1.6977      Z       4.9850
       Tot       5.2662
    Quadrupole Moments (Debye-Ang)
        XX     -11.5823     XY      -0.0000     YY     -11.6711
        XZ       0.0000     YZ      -0.0543     ZZ      -7.8459
    Octopole Moments (Debye-Ang^2)
       XXX       0.0000    XXY       0.5487    XYY       0.0000
       YYY       8.3631    XXZ       1.9863    XYZ      -0.0000
       YYZ       4.0827    XZZ       0.0000    YZZ       3.1006
       ZZZ       4.9406
    Hexadecapole Moments (Debye-Ang^3)
      XXXX     -18.5898   XXXY      -0.0000   XXYY      -7.6048
      XYYY      -0.0000   YYYY     -27.0685   XXXZ       0.0000
      XXYZ      -3.0015   XYYZ       0.0000   YYYZ      -2.2351
      XXZZ     -10.5531   XYZZ      -0.0000   YYZZ     -11.5648
      XZZZ       0.0000   YZZZ      -3.5515   ZZZZ     -56.2190
 -----------------------------------------------------------------
 Total job time:  2.31s(wall), 8.84s(cpu) 
 Mon Jul  6 15:18:42 2026

        *************************************************************
        *                                                           *
        *  Thank you very much for using Q-Chem.  Have a nice day.  *
        *                                                           *
        *************************************************************


