                  Welcome to Q-Chem
     A Quantum Leap Into The Future Of Chemistry


 Q-Chem 6.2 (devel), Q-Chem, Inc., Pleasanton, CA (2024)

 E. Epifanovsky,  A. T. B. Gilbert,  Xintian Feng,  Joonho Lee,  Yuezhi Mao,  
 N. Mardirossian,  P. Pokhilko,  A. White,  M. Wormit,  M. P. Coons,  
 A. L. Dempwolff,  Zhengting Gan,  D. Hait,  P. R. Horn,  L. D. Jacobson,  
 I. Kaliman,  J. Kussmann,  A. W. Lange,  Ka Un Lao,  D. S. Levine,  Jie Liu,  
 S. C. McKenzie,  A. F. Morrison,  K. D. Nanda,  F. Plasser,  D. R. Rehn,  
 M. L. Vidal,  Zhi-Qiang You,  Ying Zhu,  Huseyin Aksu,  B. Alam,  
 B. Albrecht,  A. Aldossary,  E. Alguire,  J. H. Andersen,  
 J. E. Arias-Martinez,  V. Athavale,  D. Barton,  K. Begam,  A. Behn,  
 N. Bellonzi,  Y. A. Bernard,  E. J. Berquist,  H. Burton,  A. Carreras,  
 K. Carter-Fenk,  Mathew Chow,  Romit Chakraborty,  Chandrima Chakravarty,  
 Junhan Chen,  A. D. Chien,  K. D. Closser,  V. Cofer-Shabica,  L. Cunha,  
 S. Dasgupta,  Jia Deng,  Joseph Dickinson,  M. de Wergifosse,  
 M. Diedenhofen,  Hainam Do,  Wenjie Dou,  S. Ehlert,  Po-Tung Fang,  
 S. Fatehi,  Qingguo Feng,  Jonathan Fetherolf,  T. Friedhoff,  
 Thomas Froitzheim,  Sarai Folkestad,  B. Ganoe,  J. Gayvert,  Qinghui Ge,  
 G. Gidofalvi,  M. Gimferrer,  M. Goldey,  Montgomery Gray,  J. Gomes,  
 C. Gonzalez-Espinoza,  S. Gulania,  A. Gunina,  J. A. Gyamfi,  
 M. W. D. Hanson-Heine,  P. H. P. Harbach,  A. W. Hauser,  M. F. Herbst,  
 M. Hernandez Vera,  M. Hodecker,  Z. C. Holden,  S. Houck,  Xunkun Huang,  
 Kerwin Hui,  B. C. Huynh,  K. Ikeda,  M. Ivanov,  Nayanthara K. Jayadev,  
 Hyunjun Ji,  Zuxin Jin,  Hanjie Jiang,  Subrata Jana,  B. Kaduk,  
 S. Kaehler,  R. Kang,  K. Khistyaev,  Jaehoon Kim,  Yongbin Kim,  
 P. Klunzinger,  Z. Koczor-Benda,  Joong Hoon Koh,  D. Kosenkov,  
 Saikiran Kotaru,  L. Koulias,  T. Kowalczyk,  C. M. Krauter,  K. Kue,  
 A. Kunitsa,  T. Kus,  A. Landau,  K. V. Lawler,  D. Lefrancois,  S. Lehtola,  
 Rain Li,  Shaozhi Li,  Tao E. Li,  Yi-Pei Li,  Jiashu Liang,  M. Liebenthal,  
 Hung-Hsuan Lin,  You-Sheng Lin,  Fenglai Liu,  Kuan-Yu Liu,  Xiao Liu,  
 M. Loipersberger,  A. Luenser,  C. Malbon,  Aniket Mandal,  Manisha,  
 A. Manjanath,  P. Manohar,  E. Mansoor,  S. F. Manzer,  Shan-Ping Mao,  
 A. V. Marenich,  T. Markovich,  S. Mason,  F. Matz,  S. A. Maurer,  
 Samuel May,  Alexandra McIsaac,  P. F. McLaughlin,  M. F. S. J. Menger,  
 J.-M. Mewes,  S. A. Mewes,  P. Morgante,  Mohammad Mostafanejad,  
 Madhubani Mukherjee,  J. W. Mullinax,  Quyen Nguyen,  Avik Kumar Ojha,  
 K. J. Oosterbaan,  Eno Paenurk,  Xiaoliang Pan,  G. Paran,  V. Parravicini,  
 Alexander C. Paul,  Suranjan K. Paul,  F. Pavosevic,  Zheng Pei,  S. Prager,  
 E. I. Proynov,  E. Ramos,  B. Rana,  A. E. Rask,  A. Rettig,  R. M. Richard,  
 F. Rob,  E. Rossomme,  T. Scheele,  M. Scheurer,  M. Schneider,  
 P. E. Schneider,  Tim K. Schramm,  N. Sergueev,  S. M. Sharada,  
 Hengyuan Shen,  W. Skomorowski,  D. W. Small,  C. J. Stein,  
 Alistair J. Sterling,  Yingli Su,  Yu-Chuan Su,  E. J. Sundstrom,  
 J. Talbot,  Zhen Tao,  J. Thirman,  Hung-Yi Tsai,  T. Tsuchimochi,  
 N. M. Tubman,  C. Utku,  S. P. Veccham,  O. Vydrov,  Rahel Weiss,  
 J. Wenzel,  Jonathan Wong,  J. Witte,  H. Wu,  Yanze Wu,  A. Yamada,  
 Chou-Hsun Yang,  Kun Yao,  S. Yeganeh,  S. R. Yost,  Qi Yu,  A. Zech,  
 F. Zeller,  Chongxiao Zhao,  Igor Ying Zhang,  Xing Zhang,  Yu Zhang,  
 D. Zuev,  A. Aspuru-Guzik,  A. T. Bell,  N. A. Besley,  K. B. Bravaya,  
 B. R. Brooks,  D. Casanova,  Jeng-Da Chai,  Hsing-Ta Chen,  S. Coriani,  
 C. J. Cramer,  A. E. DePrince, III,  R. A. DiStasio Jr.,  A. Dreuw,  
 B. D. Dunietz,  T. R. Furlani,  W. A. Goddard III,  S. Grimme,  
 S. Hammes-Schiffer,  T. Head-Gordon,  W. J. Hehre,  Chao-Ping Hsu,  
 T.-C. Jagau,  Yousung Jung,  A. Klamt,  Jing Kong,  D. S. Lambrecht,  
 Xiangyuan Li,  WanZhen Liang,  N. J. Mayhall,  C. W. McCurdy,  J. B. Neaton,  
 T. Neudecker,  C. Ochsenfeld,  J. A. Parkhill,  R. Peverati,  
 V. A. Rassolov,  Haisheng Ren,  Yihan Shao,  L. V. Slipchenko,  
 R. P. Steele,  J. E. Subotnik,  A. J. W. Thom,  A. Tkatchenko,  
 D. G. Truhlar,  T. Van Voorhis,  Fan Wang,  T. A. Wesolowski,  K. B. Whaley,  
 H. L. Woodcock III,  P. M. Zimmerman,  S. Faraji,  P. M. W. Gill,  
 M. Head-Gordon,  J. M. Herbert,  A. I. Krylov

 Contributors to earlier versions of Q-Chem not listed above: 
 R. D. Adamson,  B. Austin,  R. Baer,  J. Baker,  G. J. O. Beran,  
 K. Brandhorst,  S. T. Brown,  E. F. C. Byrd,  Arup K. Chakraborty,  
 G. K. L. Chan,  Chun-Min Chang,  Yunqing Chen,  C.-L. Cheng,  
 Siu Hung Chien,  D. M. Chipman,  D. L. Crittenden,  H. Dachsel,  
 R. J. Doerksen,  A. D. Dutoi,  R. G. Edgar,  J. Fosso-Tande,  
 L. Fusti-Molnar,  D. Ghosh,  A. Ghysels,  A. Golubeva-Zadorozhnaya,  
 J. Gonthier,  M. S. Gordon,  S. R. Gwaltney,  G. Hawkins,  J. E. Herr,  
 A. Heyden,  S. Hirata,  E. G. Hohenstein,  G. Kedziora,  F. J. Keil,  
 C. Kelley,  Jihan Kim,  R. A. King,  R. Z. Khaliullin,  P. P. Korambath,  
 W. Kurlancheek,  A. Laurent,  A. M. Lee,  M. S. Lee,  S. V. Levchenko,  
 Ching Yeh Lin,  D. Liotard,  E. Livshits,  R. C. Lochan,  I. Lotan,  
 L. A. Martinez-Martinez,  P. E. Maslen,  N. Nair,  D. P. O'Neill,  
 D. Neuhauser,  E. Neuscamman,  C. M. Oana,  R. Olivares-Amaya,  R. Olson,  
 T. M. Perrine,  B. Peters,  P. A. Pieniazek,  A. Prociuk,  Y. M. Rhee,  
 J. Ritchie,  M. A. Rohrdanz,  E. Rosta,  N. J. Russ,  H. F. Schaefer III,  
 M. W. Schmidt,  N. E. Schultz,  S. Sharma,  N. Shenvi,  C. D. Sherrill,  
 A. C. Simmonett,  A. Sodt,  T. Stein,  D. Stuck,  K. S. Thanthiriwatte,  
 V. Vanovschi,  L. Vogt,  Tao Wang,  A. Warshel,  M. A. Watson,  
 C. F. Williams,  Q. Wu,  X. Xu,  Jun Yang,  W. Zhang,  Yan Zhao

   Please cite Q-Chem as follows:
  "Software for the frontiers of quantum chemistry:
   An overview of developments in the Q-Chem 5 package"
   J. Chem. Phys. 155, 084801 (2021)
   https://doi.org/10.1063/5.0055522 (open access)

 Q-Chem 6.2.1 for Intel X86 EM64T Linux

 Parts of Q-Chem use Armadillo 9.900.5 (Nocturnal Misbehaviour).
 http://arma.sourceforge.net/

 Q-Chem begins on Mon Jul  6 15:09:52 2026  

 Host: 
0

     Scratch files written to /media/HDD1/guest/qcscratch/qchem1078820//
 Processing $rem in /media/HDD1/qchem/qc621/config/preferences:
 Processing $rem in /home/guest/.qchemrc:

 Checking the input file for inconsistencies... 	...done.

 Q-Chem warning in module forms1/BasisType.C, line 2998:

 You are not using the predefined 5D/6D in this basis set.


--------------------------------------------------------------
User input:
--------------------------------------------------------------
$molecule
0 1
  C    0.0000000   -0.0147269    0.7156012
  O    0.0000000    0.0695525   -0.6801439
  H    0.0000000    1.0112743    1.1376602
  H    0.0000000   -0.8665191   -1.0095561
  H    0.9151188   -0.5366486    1.0703452
  H   -0.9151188   -0.5366486    1.0703452
$end

$rem
MAX_SCF_CYCLES 2000
SCF_ALGORITHM DIIS_GDM
method wb97x-d3
basis cc-pvdz
GUI 2
sym_ignore true
symmetry false
PRINT_GENERAL_BASIS = TRUE
purecart 1111
PRINT_ORBITALS 10000000000
unrestricted true
$end

--------------------------------------------------------------
 Adding empirical dispersion correction 
 ----------------------------------------------------------------
 Doing -D3(0) with
 s6  =   1.00000
 s8  =   1.00000
 rs6 =   1.28100
 rs8 =   1.09400
 ----------------------------------------------------------------
 -D3 energy without 3body term =     -0.0002283694 hartrees
 ----------------------------------------------------------------
             Standard Nuclear Orientation (Angstroms)
    I     Atom           X                Y                Z
 ----------------------------------------------------------------
    1      C       0.0000000000    -0.0147269000     0.7156012000
    2      O       0.0000000000     0.0695525000    -0.6801439000
    3      H       0.0000000000     1.0112743000     1.1376602000
    4      H       0.0000000000    -0.8665191000    -1.0095561000
    5      H       0.9151188000    -0.5366486000     1.0703452000
    6      H      -0.9151188000    -0.5366486000     1.0703452000
 ----------------------------------------------------------------
 Nuclear Repulsion Energy =          40.34537224 hartrees
 There are        9 alpha and        9 beta electrons
 Requested basis set is cc-pVDZ
 Basis set in general basis input format:
-----------------------------------------------------------------------
$basis
C    0
S    7    1.000000
   6.66500000E+03    6.91990000E-04 
   1.00000000E+03    5.32976000E-03 
   2.28000000E+02    2.70770000E-02 
   6.47100000E+01    1.01768130E-01 
   2.10600000E+01    2.74902850E-01 
   7.49500000E+00    4.50094590E-01 
   2.79700000E+00    2.86933450E-01 
S    7    1.000000
   6.66500000E+03    3.10000000E-07 
   1.00000000E+03   -2.72700000E-05 
   6.47100000E+01   -1.80535000E-03 
   2.10600000E+01   -5.86561000E-03 
   7.49500000E+00   -5.51393100E-02 
   2.79700000E+00   -6.69876600E-02 
   5.21500000E-01    5.47743760E-01 
S    1    1.000000
   1.59600000E-01    1.00000000E+00 
P    3    1.000000
   9.43900000E+00    3.81090000E-02 
   2.00200000E+00    2.09480000E-01 
   5.45600000E-01    5.08557000E-01 
P    1    1.000000
   1.51700000E-01    1.00000000E+00 
D    1    1.000000
   5.50000000E-01    1.00000000E+00 
****
O    0
S    7    1.000000
   1.17200000E+04    7.10000000E-04 
   1.75900000E+03    5.47087000E-03 
   4.00800000E+02    2.78370000E-02 
   1.13700000E+02    1.04858510E-01 
   3.70300000E+01    2.83260430E-01 
   1.32700000E+01    4.50493790E-01 
   5.02500000E+00    2.72494270E-01 
S    7    1.000000
   1.17200000E+04   -1.60000000E-07 
   1.75900000E+03   -3.15300000E-05 
   1.13700000E+02   -2.12216000E-03 
   3.70300000E+01   -7.19768000E-03 
   1.32700000E+01   -6.43899900E-02 
   5.02500000E+00   -5.59550300E-02 
   1.01300000E+00    5.60848120E-01 
S    1    1.000000
   3.02300000E-01    1.00000000E+00 
P    3    1.000000
   1.77000000E+01    4.30180000E-02 
   3.85400000E+00    2.28913000E-01 
   1.04600000E+00    5.08728000E-01 
P    1    1.000000
   2.75300000E-01    1.00000000E+00 
D    1    1.000000
   1.18500000E+00    1.00000000E+00 
****
H    0
S    3    1.000000
   1.30100000E+01    1.96850000E-02 
   1.96200000E+00    1.37977000E-01 
   4.44600000E-01    4.78148000E-01 
S    1    1.000000
   1.22000000E-01    1.00000000E+00 
P    1    1.000000
   7.27000000E-01    1.00000000E+00 
****
H    0
S    3    1.000000
   1.30100000E+01    1.96850000E-02 
   1.96200000E+00    1.37977000E-01 
   4.44600000E-01    4.78148000E-01 
S    1    1.000000
   1.22000000E-01    1.00000000E+00 
P    1    1.000000
   7.27000000E-01    1.00000000E+00 
****
H    0
S    3    1.000000
   1.30100000E+01    1.96850000E-02 
   1.96200000E+00    1.37977000E-01 
   4.44600000E-01    4.78148000E-01 
S    1    1.000000
   1.22000000E-01    1.00000000E+00 
P    1    1.000000
   7.27000000E-01    1.00000000E+00 
****
H    0
S    3    1.000000
   1.30100000E+01    1.96850000E-02 
   1.96200000E+00    1.37977000E-01 
   4.44600000E-01    4.78148000E-01 
S    1    1.000000
   1.22000000E-01    1.00000000E+00 
P    1    1.000000
   7.27000000E-01    1.00000000E+00 
****
$end
-----------------------------------------------------------------------
 There are 24 shells and 48 basis functions

 Total QAlloc Memory Limit   2000 MB
 Mega-Array Size       188 MB
 MEM_STATIC part       192 MB


                       Distance Matrix (Angstroms)
             C (  1)   O (  2)   H (  3)   H (  4)   H (  5)
   O (  2)  1.398287
   H (  3)  1.109420  2.047255
   H (  4)  1.923985  0.992342  2.852481
   H (  5)  1.111615  2.066188  1.799455  2.296137
   H (  6)  1.111615  2.066188  1.799455  2.296137  1.830238

 A cutoff of  1.0D-09 yielded    300 shell pairs
 There are      1220 function pairs (      1329 Cartesian)
 Smallest overlap matrix eigenvalue = 1.66E-02

 Scale SEOQF with 1.000000e+00/1.000000e+00/1.000000e+00

 Standard Electronic Orientation quadrupole field applied
 Nucleus-field energy     =    -0.0000000099 hartrees
 Guess from superposition of atomic densities
 Warning:  Energy on first SCF cycle will be non-variational
 SAD guess density has 18.000000 electrons

 -----------------------------------------------------------------------
  General SCF calculation program by
  Eric Jon Sundstrom, Paul Horn, Yuezhi Mao, Dmitri Zuev, Alec White,
  David Stuck, Shaama M.S., Shane Yost, Joonho Lee, David Small,
  Daniel Levine, Susi Lehtola, Hugh Burton, Evgeny Epifanovsky,
  Bang C. Huynh
 -----------------------------------------------------------------------
 Exchange:     0.1957 Hartree-Fock + 1.0000 wB97X-D3 + LR-HF
 Correlation:  1.0000 wB97X-D3
 Using SG-2 standard quadrature grid
 Dispersion:   Grimme D3
 A unrestricted SCF calculation will be
 performed using DIIS, GDM
 SCF converges when RMS gradient is below 1.0e-05
 ---------------------------------------
  Cycle       Energy         DIIS error
 ---------------------------------------
    1    -115.8370867639      4.75e-02  
    2    -115.6459968373      6.61e-03  Done DIIS. Switching to GDM
 ---------------------------------------
  Cycle       Energy        RMS Gradient
 ---------------------------------------
    1    -115.6459968373      8.13e-02   Descent step
    2    -115.6676245241      6.25e-02   Normal BFGS step
    3    -115.6864660772      4.34e-03   Normal BFGS step
    4    -115.6866097232      2.45e-03   Normal BFGS step
    5    -115.6866461437      2.82e-04   Normal BFGS step
    6    -115.6866471627      1.01e-04   Normal BFGS step
    7    -115.6866472793      2.48e-05   Normal BFGS step
    8    -115.6866472824      6.19e-06  Convergence criterion met
 ---------------------------------------
 SCF time:   CPU 1.28s  wall 1.00s 
<S^2> =         -0.000000000
 SCF   energy =  -115.68664728
 Total energy =  -115.68664728

 --------------------------------------------------------------

                    Orbital Energies (a.u.)
 --------------------------------------------------------------

 Alpha MOs
 -- Occupied --
-19.2341 -10.3277  -1.1274  -0.7800  -0.5969  -0.5362  -0.5171  -0.4196
 -0.3569
 -- Virtual --
  0.1450   0.1869   0.2270   0.2283   0.2933   0.5467   0.5639   0.5986
  0.6623   0.7301   0.7474   0.7517   0.9709   0.9943   1.0472   1.1073
  1.1661   1.2936   1.4361   1.4994   1.4999   1.6797   1.7159   1.7463
  1.7672   1.8526   1.9680   2.0687   2.1590   2.1689   2.2368   2.4889
  2.4987   2.5154   3.0270   3.1145   3.1772   3.2921   3.7477

 Beta MOs
 -- Occupied --
-19.2341 -10.3277  -1.1274  -0.7800  -0.5969  -0.5362  -0.5171  -0.4196
 -0.3569
 -- Virtual --
  0.1450   0.1869   0.2270   0.2283   0.2933   0.5467   0.5639   0.5986
  0.6623   0.7301   0.7474   0.7517   0.9709   0.9943   1.0472   1.1073
  1.1661   1.2936   1.4361   1.4994   1.4999   1.6797   1.7159   1.7463
  1.7672   1.8526   1.9680   2.0687   2.1590   2.1689   2.2368   2.4889
  2.4987   2.5154   3.0270   3.1145   3.1772   3.2921   3.7477
 --------------------------------------------------------------


                        ALPHA MOLECULAR ORBITAL COEFFICIENTS
                         1         2         3         4         5         6
 eigenvalues:        -19.234   -10.328    -1.127    -0.780    -0.597    -0.536
   1  C     s        0.00004  -0.99680  -0.07509   0.16506  -0.02343   0.00000
   2  C     s        0.00015  -0.02788   0.14968  -0.35413   0.04459  -0.00000
   3  C     s       -0.00555   0.01237   0.05729  -0.22083   0.03324   0.00000
   4  C     px      -0.00000  -0.00000  -0.00000   0.00000   0.00000  -0.40649
   5  C     py      -0.00001   0.00001  -0.00076  -0.01805  -0.21487   0.00000
   6  C     pz       0.00051   0.00008  -0.11921  -0.05701   0.22030   0.00000
   7  C     px       0.00000  -0.00000   0.00000   0.00000  -0.00000  -0.16254
   8  C     py      -0.00024  -0.00020  -0.00643   0.00185  -0.10083   0.00000
   9  C     pz       0.00244   0.00081  -0.02120  -0.02971   0.08293   0.00000
  10  C     d 1      0.00000   0.00000   0.00000   0.00000  -0.00000   0.01321
  11  C     d 2     -0.00015  -0.00011   0.00311   0.00463   0.02122   0.00000
  12  C     d 3      0.00023   0.00027   0.02988   0.00108  -0.02359   0.00000
  13  C     d 4     -0.00000  -0.00000  -0.00000  -0.00000  -0.00000   0.00959
  14  C     d 5     -0.00002  -0.00006  -0.00066   0.00165   0.00444  -0.00000
  15  O     s       -0.99687  -0.00007  -0.19303  -0.06238   0.03781  -0.00000
  16  O     s       -0.02187  -0.00061   0.41576   0.14660  -0.08752   0.00000
  17  O     s        0.01089   0.00131   0.38925   0.14244  -0.14784   0.00000
  18  O     px       0.00000   0.00000   0.00000   0.00000   0.00000  -0.27384
  19  O     py       0.00138  -0.00004  -0.07989  -0.09350  -0.33992   0.00000
  20  O     pz      -0.00100   0.00008   0.07530  -0.17822  -0.23876  -0.00000
  21  O     px      -0.00000  -0.00000  -0.00000   0.00000   0.00000  -0.17883
  22  O     py      -0.00078  -0.00072  -0.00369  -0.01780  -0.15971   0.00000
  23  O     pz       0.00290   0.00133   0.03406  -0.09445  -0.09526  -0.00000
  24  O     d 1      0.00000  -0.00000  -0.00000   0.00000  -0.00000   0.00770
  25  O     d 2     -0.00020  -0.00010  -0.00072   0.00462  -0.00278   0.00000
  26  O     d 3      0.00022   0.00075   0.00739  -0.01133  -0.01270  -0.00000
  27  O     d 4     -0.00000  -0.00000  -0.00000   0.00000  -0.00000  -0.01353
  28  O     d 5      0.00014  -0.00019  -0.00492  -0.00380  -0.00991   0.00000
  29  H 1   s        0.00070   0.00124   0.03592  -0.18872  -0.04358   0.00000
  30  H 1   s        0.00041  -0.00211   0.00576  -0.03335  -0.00490  -0.00000
  31  H 1   px      -0.00000  -0.00000  -0.00000  -0.00000   0.00000  -0.01347
  32  H 1   py      -0.00013  -0.00146  -0.00564   0.02147   0.00019   0.00000
  33  H 1   pz      -0.00027  -0.00065  -0.00526   0.00584   0.00508   0.00000
  34  H 2   s       -0.00017  -0.00067   0.16778   0.16639   0.29099   0.00000
  35  H 2   s       -0.00020  -0.00043   0.00933   0.02770   0.08133   0.00000
  36  H 2   px      -0.00000   0.00000  -0.00000   0.00000  -0.00000  -0.01378
  37  H 2   py       0.00095  -0.00014   0.03048   0.02292   0.02519   0.00000
  38  H 2   pz       0.00011  -0.00061   0.01482   0.00443   0.01055  -0.00000
  39  H 3   s        0.00062   0.00117   0.03834  -0.17363   0.15200  -0.25963
  40  H 3   s        0.00026  -0.00231   0.00332  -0.02729   0.04027  -0.09908
  41  H 3   px      -0.00006  -0.00124  -0.00682   0.01727  -0.01196   0.00661
  42  H 3   py       0.00008   0.00076   0.00391  -0.01083   0.00055  -0.01049
  43  H 3   pz      -0.00027  -0.00055  -0.00484   0.00473   0.00088   0.00623
  44  H 4   s        0.00062   0.00117   0.03834  -0.17363   0.15200   0.25963
  45  H 4   s        0.00026  -0.00231   0.00332  -0.02729   0.04027   0.09908
  46  H 4   px       0.00006   0.00124   0.00682  -0.01727   0.01196   0.00661
  47  H 4   py       0.00008   0.00076   0.00391  -0.01083   0.00055   0.01049
  48  H 4   pz      -0.00027  -0.00055  -0.00484   0.00473   0.00088  -0.00623
                         7         8         9        10        11        12
 eigenvalues:         -0.517    -0.420    -0.357     0.145     0.187     0.227
   1  C     s        0.00232  -0.00879   0.00000  -0.06281   0.11042   0.00000
   2  C     s       -0.01297   0.03071  -0.00000   0.05147  -0.16330  -0.00000
   3  C     s       -0.00584  -0.01423  -0.00000   1.19120  -1.68551  -0.00000
   4  C     px       0.00000  -0.00000   0.19118   0.00000   0.00000  -0.40384
   5  C     py       0.28219   0.28239   0.00000  -0.06952  -0.06412   0.00000
   6  C     pz       0.29032  -0.11706  -0.00000   0.17206  -0.04299   0.00000
   7  C     px       0.00000  -0.00000   0.03612   0.00000   0.00000  -1.26820
   8  C     py       0.14165   0.07999  -0.00000  -0.17025  -0.21904   0.00000
   9  C     pz       0.10621  -0.00788   0.00000   0.31962  -0.22584   0.00000
  10  C     d 1      0.00000   0.00000  -0.01077  -0.00000   0.00000  -0.00516
  11  C     d 2     -0.00114   0.03094   0.00000   0.00757   0.00639  -0.00000
  12  C     d 3     -0.02581   0.00913   0.00000   0.01821   0.01453   0.00000
  13  C     d 4     -0.00000  -0.00000   0.03977   0.00000  -0.00000   0.00006
  14  C     d 5     -0.00758  -0.01195   0.00000   0.00439   0.00458   0.00000
  15  O     s       -0.03251   0.05604   0.00000  -0.06234  -0.05162  -0.00000
  16  O     s        0.06544  -0.11865  -0.00000   0.10705   0.07818   0.00000
  17  O     s        0.13294  -0.24918  -0.00000   0.58155   0.53554   0.00000
  18  O     px       0.00000   0.00000  -0.57825  -0.00000  -0.00000   0.06819
  19  O     py       0.11411  -0.38955  -0.00000  -0.19800  -0.16002  -0.00000
  20  O     pz      -0.36226   0.20615   0.00000  -0.04383   0.04422   0.00000
  21  O     px       0.00000   0.00000  -0.44780  -0.00000  -0.00000   0.17899
  22  O     py       0.08816  -0.25102  -0.00000  -0.26964  -0.22194  -0.00000
  23  O     pz      -0.20709   0.17204   0.00000  -0.13607   0.03986   0.00000
  24  O     d 1     -0.00000  -0.00000   0.01293   0.00000   0.00000  -0.00580
  25  O     d 2      0.01862  -0.00388   0.00000  -0.00394  -0.00556   0.00000
  26  O     d 3     -0.00810  -0.00011   0.00000  -0.00122  -0.00829  -0.00000
  27  O     d 4      0.00000  -0.00000  -0.00562   0.00000   0.00000  -0.00996
  28  O     d 5      0.00096  -0.01170  -0.00000  -0.00526  -0.00384  -0.00000
  29  H 1   s        0.29722   0.25036   0.00000  -0.01776   0.05609  -0.00000
  30  H 1   s        0.10126   0.12864   0.00000  -0.30456   1.12832  -0.00000
  31  H 1   px       0.00000  -0.00000   0.00864  -0.00000   0.00000  -0.00946
  32  H 1   py      -0.01532  -0.00475  -0.00000  -0.00426  -0.00401  -0.00000
  33  H 1   pz      -0.00112  -0.00904  -0.00000   0.01143   0.00714   0.00000
  34  H 2   s        0.06481   0.21673   0.00000  -0.12603  -0.11089  -0.00000
  35  H 2   s        0.05325   0.06064   0.00000  -0.92622  -0.82055  -0.00000
  36  H 2   px       0.00000   0.00000  -0.02978  -0.00000  -0.00000   0.01456
  37  H 2   py       0.01218   0.00660   0.00000   0.00295  -0.00350   0.00000
  38  H 2   pz      -0.01805   0.01716   0.00000   0.00285   0.01277  -0.00000
  39  H 3   s       -0.03462  -0.15910   0.20991  -0.03837   0.02406   0.06346
  40  H 3   s       -0.00633  -0.09987   0.13510  -0.63890   0.70156   1.66811
  41  H 3   px       0.00254   0.01015  -0.00261  -0.00154  -0.00046  -0.00345
  42  H 3   py       0.00669   0.00616   0.00571   0.00321   0.00329  -0.00472
  43  H 3   pz       0.00743  -0.00085  -0.00170   0.01051   0.00715  -0.00324
  44  H 4   s       -0.03462  -0.15910  -0.20991  -0.03837   0.02406  -0.06346
  45  H 4   s       -0.00633  -0.09987  -0.13510  -0.63890   0.70156  -1.66811
  46  H 4   px      -0.00254  -0.01015  -0.00261   0.00154   0.00046  -0.00345
  47  H 4   py       0.00669   0.00616  -0.00571   0.00321   0.00329   0.00472
  48  H 4   pz       0.00743  -0.00085   0.00170   0.01051   0.00715   0.00324
                        13        14        15        16        17        18
 eigenvalues:          0.228     0.293     0.547     0.564     0.599     0.662
   1  C     s       -0.01725  -0.05108   0.00375   0.00000  -0.02600   0.00910
   2  C     s        0.01860   0.07344  -0.03507  -0.00000   0.42718   0.01130
   3  C     s        0.23942   0.71623   0.01322   0.00000  -0.38151  -0.13453
   4  C     px      -0.00000   0.00000   0.00000  -0.21389  -0.00000   0.00000
   5  C     py      -0.37558   0.04882  -0.21117  -0.00000  -0.08689  -0.46937
   6  C     pz      -0.06499  -0.28501   0.10378   0.00000  -0.87426   0.29931
   7  C     px      -0.00000   0.00000  -0.00000   1.20116   0.00000  -0.00000
   8  C     py      -1.22493   0.27281   1.00426   0.00000   0.40977   1.25676
   9  C     pz      -0.26888  -1.38934  -0.04639  -0.00000   1.37993  -0.27533
  10  C     d 1      0.00000  -0.00000  -0.00000   0.17131   0.00000   0.00000
  11  C     d 2      0.00698   0.00619  -0.09828  -0.00000   0.01867   0.16131
  12  C     d 3     -0.00566  -0.03120   0.02165   0.00000  -0.10962   0.12360
  13  C     d 4     -0.00000   0.00000   0.00000  -0.04048  -0.00000  -0.00000
  14  C     d 5     -0.01204   0.00932   0.15909   0.00000   0.02964  -0.03119
  15  O     s        0.02086   0.05483   0.01435   0.00000   0.00401  -0.01839
  16  O     s       -0.02652  -0.06672  -0.05171   0.00000  -0.14851   0.14726
  17  O     s       -0.26168  -0.73311  -0.09554  -0.00000   0.64737  -0.37302
  18  O     px       0.00000  -0.00000   0.00000  -0.18782  -0.00000   0.00000
  19  O     py       0.09715  -0.11540  -0.03267   0.00000  -0.04881  -0.28985
  20  O     pz      -0.06137  -0.35305   0.12728   0.00000  -0.27518   0.11823
  21  O     px       0.00000  -0.00000   0.00000  -0.20600  -0.00000   0.00000
  22  O     py       0.21346  -0.21200  -0.16694  -0.00000  -0.17982  -0.18397
  23  O     pz      -0.09995  -0.73924   0.01155  -0.00000   0.08501  -0.15157
  24  O     d 1     -0.00000  -0.00000  -0.00000   0.01023   0.00000  -0.00000
  25  O     d 2     -0.01028   0.00372   0.02215   0.00000  -0.00937  -0.05626
  26  O     d 3      0.00089  -0.00347  -0.01712  -0.00000   0.07746  -0.00797
  27  O     d 4     -0.00000  -0.00000  -0.00000   0.00930   0.00000   0.00000
  28  O     d 5      0.00089   0.00237  -0.01370  -0.00000   0.01370   0.06082
  29  H 1   s        0.11155   0.05576  -0.78323  -0.00000  -0.21503   0.02824
  30  H 1   s        1.80666  -0.17528   0.31038   0.00000  -0.22988  -0.86984
  31  H 1   px      -0.00000  -0.00000  -0.00000   0.08328   0.00000   0.00000
  32  H 1   py       0.00291   0.00967  -0.04085  -0.00000   0.02791   0.05732
  33  H 1   pz      -0.00558  -0.01385  -0.01114   0.00000  -0.00585   0.08441
  34  H 2   s       -0.00272  -0.06733   0.24159   0.00000  -0.40905  -0.94890
  35  H 2   s        0.13903  -0.83165   0.01803  -0.00000   0.62601   0.88308
  36  H 2   px       0.00000  -0.00000   0.00000  -0.00758   0.00000   0.00000
  37  H 2   py       0.00413   0.00884  -0.03459  -0.00000   0.04961   0.16244
  38  H 2   pz       0.00841  -0.00526  -0.07083   0.00000  -0.09841   0.08005
  39  H 3   s       -0.05297   0.10564   0.39831  -0.69943  -0.05556  -0.05793
  40  H 3   s       -0.97184   0.26015  -0.15734   0.10054  -0.04314   0.50751
  41  H 3   px      -0.00351   0.01240   0.03933   0.00314   0.01779  -0.06631
  42  H 3   py      -0.00833   0.00075   0.04875   0.04948   0.00137   0.03954
  43  H 3   pz      -0.00259  -0.01773   0.01735  -0.01125  -0.04034  -0.03638
  44  H 4   s       -0.05297   0.10564   0.39831   0.69943  -0.05556  -0.05793
  45  H 4   s       -0.97184   0.26015  -0.15734  -0.10054  -0.04314   0.50751
  46  H 4   px       0.00351  -0.01240  -0.03933   0.00314  -0.01779   0.06631
  47  H 4   py      -0.00833   0.00075   0.04875  -0.04948   0.00137   0.03954
  48  H 4   pz      -0.00259  -0.01773   0.01735   0.01125  -0.04034  -0.03638
                        19        20        21        22        23        24
 eigenvalues:          0.730     0.747     0.752     0.971     0.994     1.047
   1  C     s        0.00000  -0.07964  -0.01541   0.01283  -0.00000  -0.09775
   2  C     s       -0.00000   0.62252   0.03067   0.25540  -0.00000  -1.57224
   3  C     s        0.00000  -0.75615   0.06677  -0.99663   0.00000   4.38856
   4  C     px      -0.88450  -0.00000  -0.00000  -0.00000  -0.03355   0.00000
   5  C     py      -0.00000   0.13138  -0.73424   0.09657  -0.00000   0.04979
   6  C     pz      -0.00000   0.20124  -0.08075   0.18757  -0.00000  -0.24911
   7  C     px       1.97720   0.00000   0.00000   0.00000   0.06421   0.00000
   8  C     py       0.00000  -0.31882   1.54509  -0.11696  -0.00000  -0.10427
   9  C     pz       0.00000  -0.47329   0.07172  -0.09986  -0.00000   0.33610
  10  C     d 1     -0.20693  -0.00000  -0.00000  -0.00000  -0.26496  -0.00000
  11  C     d 2      0.00000  -0.03516   0.10686   0.24318  -0.00000   0.22592
  12  C     d 3     -0.00000   0.12847  -0.01357  -0.06305   0.00000   0.04326
  13  C     d 4      0.19320   0.00000   0.00000  -0.00000  -0.27783  -0.00000
  14  C     d 5      0.00000   0.00438  -0.21679   0.25828  -0.00000   0.07541
  15  O     s       -0.00000   0.02843   0.01848  -0.03657   0.00000   0.04101
  16  O     s        0.00000  -0.13127  -0.15231   0.06226  -0.00000  -0.27618
  17  O     s        0.00000  -0.16092   0.19146   0.53388  -0.00000  -0.37838
  18  O     px       0.01417   0.00000   0.00000  -0.00000  -0.65748   0.00000
  19  O     py      -0.00000  -0.04760   0.27812   0.54327  -0.00000  -0.06762
  20  O     pz       0.00000  -0.15209   0.00040  -0.16082   0.00000  -0.02434
  21  O     px      -0.16348  -0.00000  -0.00000   0.00000   0.57133  -0.00000
  22  O     py      -0.00000   0.08937  -0.21060  -0.83426   0.00000   0.25085
  23  O     pz       0.00000  -0.14450  -0.01101   0.23751  -0.00000  -0.51995
  24  O     d 1      0.00507   0.00000  -0.00000  -0.00000  -0.01547  -0.00000
  25  O     d 2     -0.00000   0.00549   0.02171  -0.01371   0.00000  -0.03449
  26  O     d 3      0.00000  -0.00438  -0.01522  -0.00915  -0.00000  -0.04433
  27  O     d 4     -0.02372  -0.00000  -0.00000  -0.00000   0.01940   0.00000
  28  O     d 5      0.00000  -0.00262  -0.04940   0.00107  -0.00000  -0.00192
  29  H 1   s        0.00000  -0.68166   0.22080   0.04925  -0.00000  -0.49191
  30  H 1   s       -0.00000   0.88564  -1.53155   0.38505  -0.00000  -0.75567
  31  H 1   px      -0.03624  -0.00000  -0.00000  -0.00000  -0.19975  -0.00000
  32  H 1   py       0.00000  -0.18444   0.16477  -0.12997  -0.00000   0.03477
  33  H 1   pz       0.00000  -0.06098   0.08751   0.21121  -0.00000   0.12691
  34  H 2   s       -0.00000   0.11616   0.60444  -0.34792   0.00000   0.09165
  35  H 2   s        0.00000  -0.33755  -0.58183  -0.19470  -0.00000  -0.22835
  36  H 2   px       0.01300   0.00000   0.00000   0.00000   0.05167  -0.00000
  37  H 2   py       0.00000  -0.00439  -0.16688  -0.22469  -0.00000  -0.07522
  38  H 2   pz       0.00000   0.02521  -0.05607  -0.01418   0.00000   0.26411
  39  H 3   s        0.27426  -0.64029  -0.24923   0.02775  -0.03568  -0.42683
  40  H 3   s       -1.62338   0.53928   0.87096   0.13574  -0.09105  -0.79664
  41  H 3   px       0.15092  -0.13140  -0.10400   0.10187   0.02215   0.09710
  42  H 3   py      -0.10540   0.07457   0.02067   0.12706  -0.12278   0.02719
  43  H 3   pz       0.08688  -0.00552  -0.03319  -0.13411  -0.23495   0.03690
  44  H 4   s       -0.27426  -0.64029  -0.24923   0.02775   0.03568  -0.42683
  45  H 4   s        1.62338   0.53928   0.87096   0.13574   0.09105  -0.79664
  46  H 4   px       0.15092   0.13140   0.10400  -0.10187   0.02215  -0.09710
  47  H 4   py       0.10540   0.07457   0.02067   0.12706   0.12278   0.02719
  48  H 4   pz      -0.08688  -0.00552  -0.03319  -0.13411   0.23495   0.03690
                        25        26        27        28        29        30
 eigenvalues:          1.107     1.166     1.294     1.436     1.499     1.500
   1  C     s       -0.01882  -0.00000   0.05569  -0.00000   0.00000   0.02055
   2  C     s       -0.36403  -0.00000   0.88762  -0.00000   0.00000   0.37942
   3  C     s       -0.33954   0.00000  -2.24376   0.00000  -0.00000  -0.43518
   4  C     px      -0.00000   0.10548  -0.00000  -0.00609   0.01251  -0.00000
   5  C     py      -0.14287   0.00000  -0.07374  -0.00000   0.00000   0.00117
   6  C     pz       0.22979  -0.00000  -0.13626   0.00000  -0.00000  -0.15363
   7  C     px       0.00000  -0.66440  -0.00000  -0.51688  -0.03895   0.00000
   8  C     py       0.35157  -0.00000  -0.32039   0.00000   0.00000   0.28016
   9  C     pz       0.89208   0.00000   0.26970   0.00000  -0.00000  -0.26764
  10  C     d 1     -0.00000   0.10156   0.00000   0.22685   0.00594  -0.00000
  11  C     d 2     -0.05533   0.00000   0.49366   0.00000   0.00000   0.02791
  12  C     d 3     -0.38316   0.00000  -0.00731  -0.00000   0.00000   0.16737
  13  C     d 4     -0.00000   0.50874  -0.00000   0.06349  -0.01422   0.00000
  14  C     d 5     -0.05302  -0.00000   0.04296  -0.00000  -0.00000  -0.14756
  15  O     s       -0.04366   0.00000   0.01632   0.00000   0.00000   0.00153
  16  O     s        0.27579  -0.00000  -0.04274  -0.00000  -0.00000  -0.06801
  17  O     s        0.17543   0.00000   0.03942   0.00000   0.00000   0.12118
  18  O     px      -0.00000  -0.62051  -0.00000  -0.25054   0.01683  -0.00000
  19  O     py      -0.02395  -0.00000  -0.42582  -0.00000   0.00000   0.23570
  20  O     pz      -0.71730   0.00000  -0.09254   0.00000  -0.00000  -0.02668
  21  O     px       0.00000   0.92921   0.00000   0.81902  -0.06738   0.00000
  22  O     py       0.19074   0.00000   1.46453   0.00000  -0.00000  -0.58207
  23  O     pz       1.64780  -0.00000   0.49771   0.00000  -0.00000  -0.56836
  24  O     d 1      0.00000  -0.01317   0.00000   0.16181  -0.02290   0.00000
  25  O     d 2      0.00297  -0.00000  -0.08221   0.00000  -0.00000  -0.09582
  26  O     d 3     -0.02245  -0.00000   0.00034  -0.00000   0.00000   0.00849
  27  O     d 4      0.00000  -0.08797   0.00000   0.01254  -0.00466   0.00000
  28  O     d 5      0.01456   0.00000  -0.07727   0.00000  -0.00000  -0.01051
  29  H 1   s       -0.15645  -0.00000   0.23098  -0.00000  -0.00000  -0.03078
  30  H 1   s       -0.33068  -0.00000   0.30446  -0.00000   0.00000   0.03130
  31  H 1   px       0.00000   0.10022  -0.00000  -0.15453  -0.55357   0.00000
  32  H 1   py       0.07987   0.00000  -0.05153  -0.00000   0.00000   0.21259
  33  H 1   pz      -0.13302  -0.00000   0.10615   0.00000  -0.00000  -0.40075
  34  H 2   s        0.00663   0.00000   0.81103   0.00000  -0.00000  -0.39332
  35  H 2   s        0.88053  -0.00000   0.37386  -0.00000  -0.00000  -0.10349
  36  H 2   px      -0.00000   0.27460   0.00000  -0.93483   0.12033  -0.00000
  37  H 2   py       0.15251  -0.00000   0.06598   0.00000  -0.00000  -0.33320
  38  H 2   pz       0.11920   0.00000   0.38866  -0.00000   0.00000   0.56367
  39  H 3   s       -0.03578   0.03511   0.30923   0.17917   0.02468   0.20283
  40  H 3   s       -0.11217   0.22627   0.21222   0.18840   0.00383   0.13529
  41  H 3   px      -0.01241  -0.04200   0.04046  -0.00802   0.32475  -0.02825
  42  H 3   py      -0.00207   0.07195   0.11172   0.03768   0.52278   0.17603
  43  H 3   pz      -0.00823   0.16493  -0.01201   0.10455  -0.01679   0.34235
  44  H 4   s       -0.03578  -0.03511   0.30923  -0.17917  -0.02468   0.20283
  45  H 4   s       -0.11217  -0.22627   0.21222  -0.18840  -0.00383   0.13529
  46  H 4   px       0.01241  -0.04200  -0.04046  -0.00802   0.32475   0.02825
  47  H 4   py      -0.00207  -0.07195   0.11172  -0.03768  -0.52278   0.17603
  48  H 4   pz      -0.00823  -0.16493  -0.01201  -0.10455   0.01679   0.34235
                        31        32        33        34        35        36
 eigenvalues:          1.680     1.716     1.746     1.767     1.853     1.968
   1  C     s       -0.00000  -0.00831   0.01711  -0.00000  -0.04826   0.01139
   2  C     s       -0.00000   0.04199  -0.06665  -0.00000  -0.35692  -0.04008
   3  C     s        0.00000   0.16341  -0.30785   0.00000   1.84610  -1.01074
   4  C     px       0.09113   0.00000   0.00000   0.14637  -0.00000  -0.00000
   5  C     py      -0.00000  -0.10356  -0.09228   0.00000  -0.05404  -0.05701
   6  C     pz       0.00000  -0.08981   0.13274  -0.00000  -0.18276   0.26302
   7  C     px      -1.25547  -0.00000  -0.00000  -0.18235  -0.00000   0.00000
   8  C     py      -0.00000   1.15505   0.38466  -0.00000  -0.57749  -0.74659
   9  C     pz       0.00000  -0.47306   1.06615  -0.00000  -0.59714  -0.03129
  10  C     d 1      0.40518   0.00000   0.00000   0.52653   0.00000   0.00000
  11  C     d 2     -0.00000   0.20730   0.41485  -0.00000   0.30520   0.52843
  12  C     d 3     -0.00000   0.39618  -0.67290   0.00000   0.68037  -0.28602
  13  C     d 4      0.10208   0.00000  -0.00000  -0.72148   0.00000   0.00000
  14  C     d 5      0.00000  -0.55522  -0.36383   0.00000  -0.15829   0.06060
  15  O     s       -0.00000   0.01809  -0.04105   0.00000   0.03906  -0.01268
  16  O     s       -0.00000   0.11100  -0.10627  -0.00000   1.11185  -0.75834
  17  O     s        0.00000  -0.65610   1.13064  -0.00000  -2.66030   1.32712
  18  O     px      -0.08637  -0.00000  -0.00000  -0.15352  -0.00000   0.00000
  19  O     py      -0.00000   0.19257   0.04982   0.00000   0.11327  -0.00439
  20  O     pz       0.00000  -0.25548   0.44379  -0.00000  -0.04525  -0.10924
  21  O     px       0.42028   0.00000  -0.00000  -0.08509   0.00000  -0.00000
  22  O     py       0.00000  -0.42183  -0.17973   0.00000   0.63912   0.14324
  23  O     pz       0.00000  -0.08353   0.08836  -0.00000  -0.48861   0.96289
  24  O     d 1      0.03203   0.00000  -0.00000  -0.01695  -0.00000   0.00000
  25  O     d 2      0.00000  -0.00748  -0.06856   0.00000  -0.01032  -0.01855
  26  O     d 3     -0.00000   0.01434  -0.02523   0.00000   0.10240  -0.07161
  27  O     d 4     -0.08481  -0.00000   0.00000   0.15866  -0.00000   0.00000
  28  O     d 5      0.00000  -0.02322  -0.03028   0.00000  -0.12380   0.08834
  29  H 1   s        0.00000  -0.59748  -0.62995   0.00000  -0.09572   0.13237
  30  H 1   s       -0.00000  -0.17715   0.01159  -0.00000   0.15686   0.57279
  31  H 1   px       0.50665   0.00000  -0.00000  -0.09844  -0.00000  -0.00000
  32  H 1   py       0.00000  -0.38192  -0.12767   0.00000   0.13335  -0.03846
  33  H 1   pz      -0.00000   0.27788  -0.50567   0.00000  -0.43401  -0.16065
  34  H 2   s        0.00000  -0.10933  -0.15975   0.00000   0.62193  -0.05645
  35  H 2   s       -0.00000   0.09713   0.14414  -0.00000   0.04514  -0.03260
  36  H 2   px      -0.03713  -0.00000   0.00000   0.26560  -0.00000   0.00000
  37  H 2   py       0.00000   0.01089  -0.04803   0.00000   0.39874   0.23829
  38  H 2   pz      -0.00000   0.08424   0.02507   0.00000  -0.19134  -0.66357
  39  H 3   s        0.48287   0.46274   0.02756   0.48052  -0.09091   0.04478
  40  H 3   s        0.31480   0.08698  -0.06343  -0.23282  -0.32277  -0.13268
  41  H 3   px       0.40946   0.02150   0.05718   0.07146   0.20282   0.01396
  42  H 3   py      -0.00412  -0.34098  -0.04596  -0.13964   0.26593   0.13916
  43  H 3   pz      -0.42364   0.09733  -0.23374   0.44612  -0.05301   0.53389
  44  H 4   s       -0.48287   0.46274   0.02756  -0.48052  -0.09091   0.04478
  45  H 4   s       -0.31480   0.08698  -0.06343   0.23282  -0.32277  -0.13268
  46  H 4   px       0.40946  -0.02150  -0.05718   0.07146  -0.20282  -0.01396
  47  H 4   py       0.00412  -0.34098  -0.04596   0.13964   0.26593   0.13916
  48  H 4   pz       0.42364   0.09733  -0.23374  -0.44612  -0.05301   0.53389
                        37        38        39        40        41        42
 eigenvalues:          2.069     2.159     2.169     2.237     2.489     2.499
   1  C     s        0.00322   0.01833  -0.00000  -0.00200   0.00000  -0.05020
   2  C     s       -0.07859   0.41622  -0.00000  -0.00023  -0.00000   1.01207
   3  C     s        0.21650  -0.96224   0.00000   0.03877  -0.00000   1.84293
   4  C     px      -0.00000  -0.00000  -0.14648   0.00000  -1.26784  -0.00000
   5  C     py       0.04597   0.01833  -0.00000  -0.28479  -0.00000   0.34565
   6  C     pz      -0.27910   0.32693  -0.00000   0.14170  -0.00000   0.57056
   7  C     px      -0.00000  -0.00000  -0.72959   0.00000  -1.12161  -0.00000
   8  C     py      -0.08197  -0.14590  -0.00000  -0.63042  -0.00000   0.36665
   9  C     pz      -0.54418   0.81686  -0.00000  -0.04656  -0.00000   0.26437
  10  C     d 1     -0.00000  -0.00000  -0.83347   0.00000   1.13108   0.00000
  11  C     d 2     -0.23580  -0.21174   0.00000  -0.53977  -0.00000   0.30370
  12  C     d 3     -0.50168   0.28763  -0.00000  -0.12929   0.00000  -0.70324
  13  C     d 4     -0.00000  -0.00000  -0.56021   0.00000  -0.64775  -0.00000
  14  C     d 5     -0.45686  -0.38486   0.00000  -0.56061   0.00000  -0.22872
  15  O     s        0.01982   0.00428  -0.00000  -0.03097   0.00000  -0.00127
  16  O     s        0.37384  -1.21637   0.00000   0.02125  -0.00000   0.41325
  17  O     s       -1.16530   1.52509  -0.00000   0.84154   0.00000  -0.41405
  18  O     px      -0.00000  -0.00000  -0.13709   0.00000  -0.04023  -0.00000
  19  O     py       0.31136   0.27864  -0.00000  -0.48242   0.00000  -0.03675
  20  O     pz       0.33272  -0.10409   0.00000  -0.12895  -0.00000   0.18689
  21  O     px       0.00000   0.00000   0.24032  -0.00000   0.06517   0.00000
  22  O     py       0.04552  -0.05960   0.00000  -0.22404   0.00000   0.00596
  23  O     pz      -0.35325   0.61098  -0.00000  -0.01986  -0.00000  -0.15911
  24  O     d 1     -0.00000  -0.00000  -0.09410   0.00000   0.11227   0.00000
  25  O     d 2      0.11410   0.09019  -0.00000   0.07455   0.00000  -0.04233
  26  O     d 3      0.04063  -0.06186   0.00000   0.02469  -0.00000   0.05618
  27  O     d 4      0.00000   0.00000   0.15253  -0.00000   0.11474   0.00000
  28  O     d 5     -0.09282  -0.02422   0.00000   0.11882   0.00000  -0.06039
  29  H 1   s       -0.10598  -0.03248   0.00000   0.15499   0.00000  -1.14283
  30  H 1   s        0.13484   0.03110   0.00000   0.42379   0.00000  -0.64564
  31  H 1   px       0.00000   0.00000   0.92834  -0.00000  -0.00744  -0.00000
  32  H 1   py      -0.26478   0.30602  -0.00000  -0.31446  -0.00000   1.11669
  33  H 1   pz       0.58831  -0.09016   0.00000   0.20115  -0.00000   0.54189
  34  H 2   s        0.20724  -0.04171  -0.00000  -0.48548   0.00000  -0.00373
  35  H 2   s        0.13203   0.29957  -0.00000  -0.35869  -0.00000   0.06927
  36  H 2   px       0.00000  -0.00000  -0.14042   0.00000   0.13593   0.00000
  37  H 2   py       0.61106   0.56586  -0.00000  -0.80724   0.00000  -0.04810
  38  H 2   pz       0.29493   0.21084  -0.00000  -0.30482   0.00000  -0.03263
  39  H 3   s        0.01710   0.10156   0.04089  -0.13942   1.18301  -0.55774
  40  H 3   s        0.05976  -0.11585   0.36561  -0.20384   0.68092  -0.26929
  41  H 3   px      -0.04822   0.39919   0.07945   0.50565  -0.93823   0.50887
  42  H 3   py       0.42744   0.13048   0.47920   0.40333   0.51939  -0.35069
  43  H 3   pz       0.24500  -0.35031   0.29596  -0.03797  -0.40539   0.30130
  44  H 4   s        0.01710   0.10156  -0.04089  -0.13942  -1.18301  -0.55774
  45  H 4   s        0.05976  -0.11585  -0.36561  -0.20384  -0.68092  -0.26929
  46  H 4   px       0.04822  -0.39919   0.07945  -0.50565  -0.93823  -0.50887
  47  H 4   py       0.42744   0.13048  -0.47920   0.40333  -0.51939  -0.35069
  48  H 4   pz       0.24500  -0.35031  -0.29596  -0.03797   0.40539   0.30130
                        43        44        45        46        47        48
 eigenvalues:          2.515     3.027     3.115     3.177     3.292     3.748
   1  C     s        0.01614   0.00000  -0.00000   0.01571  -0.04136  -0.01154
   2  C     s       -0.34713   0.00000   0.00000  -0.24419   0.19543   0.03008
   3  C     s       -0.66389  -0.00000   0.00000  -0.54710   0.81919   0.04676
   4  C     px      -0.00000  -0.14196  -0.17422  -0.00000   0.00000  -0.00000
   5  C     py       1.18896   0.00000   0.00000  -0.16684   0.01125  -0.02746
   6  C     pz      -0.02035  -0.00000  -0.00000   0.35530  -0.49246  -0.10383
   7  C     px      -0.00000  -0.26919   0.07234   0.00000   0.00000  -0.00000
   8  C     py       0.93799   0.00000   0.00000  -0.10969  -0.08007   0.03868
   9  C     pz       0.03516   0.00000  -0.00000   0.19391  -0.52345  -0.18129
  10  C     d 1      0.00000   0.33885   0.13372  -0.00000  -0.00000   0.00000
  11  C     d 2      0.64589  -0.00000   0.00000  -0.53579  -0.39059   0.02291
  12  C     d 3      0.21209  -0.00000   0.00000  -0.32582   0.45871   0.16079
  13  C     d 4     -0.00000   0.19106  -0.72050  -0.00000   0.00000  -0.00000
  14  C     d 5     -1.16209  -0.00000  -0.00000   0.13972  -0.05768   0.13363
  15  O     s       -0.01408  -0.00000   0.00000  -0.03363   0.04069  -0.03730
  16  O     s       -0.15195  -0.00000   0.00000  -0.45028   0.46902  -0.09852
  17  O     s        0.54378   0.00000  -0.00000   1.23009  -1.48035   1.15923
  18  O     px      -0.00000  -0.04419   0.01623   0.00000   0.00000   0.00000
  19  O     py      -0.11414  -0.00000   0.00000  -0.02662   0.08486  -0.30284
  20  O     pz      -0.12705  -0.00000   0.00000  -0.05227  -0.00897  -0.12164
  21  O     px       0.00000   0.33271  -0.19101  -0.00000   0.00000  -0.00000
  22  O     py      -0.21013  -0.00000   0.00000  -0.48481  -0.00562  -0.98632
  23  O     pz       0.21188   0.00000  -0.00000   0.58109  -0.66231  -0.51986
  24  O     d 1      0.00000  -1.01058  -0.19604   0.00000   0.00000  -0.00000
  25  O     d 2     -0.07808  -0.00000  -0.00000  -0.72733  -0.52752   0.66990
  26  O     d 3     -0.01855  -0.00000  -0.00000   0.33255  -0.97227  -0.51191
  27  O     d 4      0.00000   0.17442  -1.00761  -0.00000   0.00000  -0.00000
  28  O     d 5     -0.06648  -0.00000   0.00000  -0.66678   0.09795  -0.93883
  29  H 1   s       -1.08715   0.00000  -0.00000   0.31867   0.12711   0.10114
  30  H 1   s       -0.55350   0.00000  -0.00000   0.13192   0.03378   0.08324
  31  H 1   px      -0.00000  -0.11931   0.05607  -0.00000  -0.00000  -0.00000
  32  H 1   py       0.91011  -0.00000   0.00000  -0.29394  -0.11626  -0.05924
  33  H 1   pz       0.42005   0.00000   0.00000   0.08930   0.08758  -0.13353
  34  H 2   s       -0.19696  -0.00000   0.00000  -0.41613   0.21294  -1.46209
  35  H 2   s       -0.05396   0.00000   0.00000  -0.00140  -0.12587  -0.35352
  36  H 2   px       0.00000  -0.46984  -0.15792   0.00000   0.00000  -0.00000
  37  H 2   py      -0.25261   0.00000   0.00000  -0.04035   0.22114  -1.00359
  38  H 2   pz      -0.23209  -0.00000   0.00000  -0.36816  -0.17753  -0.34149
  39  H 3   s        0.87499   0.17274   0.25154  -0.14990  -0.05200  -0.00755
  40  H 3   s        0.45359   0.10741  -0.01833  -0.00104  -0.04588   0.03822
  41  H 3   px      -0.65856  -0.09179  -0.21389   0.11826   0.08415  -0.02548
  42  H 3   py       0.47740  -0.02057   0.14128  -0.01844   0.05001  -0.05492
  43  H 3   pz      -0.32544  -0.13194   0.15530   0.01612  -0.05142   0.05537
  44  H 4   s        0.87499  -0.17274  -0.25154  -0.14990  -0.05200  -0.00755
  45  H 4   s        0.45359  -0.10741   0.01833  -0.00104  -0.04588   0.03822
  46  H 4   px       0.65856  -0.09179  -0.21389  -0.11826  -0.08415   0.02548
  47  H 4   py       0.47740   0.02057  -0.14128  -0.01844   0.05001  -0.05492
  48  H 4   pz      -0.32544   0.13194  -0.15530   0.01612  -0.05142   0.05537


                        BETA  MOLECULAR ORBITAL COEFFICIENTS
                         1         2         3         4         5         6
 eigenvalues:        -19.234   -10.328    -1.127    -0.780    -0.597    -0.536
   1  C     s        0.00004  -0.99680  -0.07509   0.16506  -0.02343  -0.00000
   2  C     s        0.00015  -0.02788   0.14968  -0.35413   0.04459  -0.00000
   3  C     s       -0.00555   0.01237   0.05729  -0.22083   0.03324   0.00000
   4  C     px      -0.00000  -0.00000   0.00000   0.00000  -0.00000  -0.40649
   5  C     py      -0.00001   0.00001  -0.00076  -0.01805  -0.21487  -0.00000
   6  C     pz       0.00051   0.00008  -0.11921  -0.05701   0.22030  -0.00000
   7  C     px       0.00000  -0.00000   0.00000   0.00000  -0.00000  -0.16254
   8  C     py      -0.00024  -0.00020  -0.00643   0.00185  -0.10083   0.00000
   9  C     pz       0.00244   0.00081  -0.02120  -0.02971   0.08293  -0.00000
  10  C     d 1     -0.00000   0.00000  -0.00000   0.00000  -0.00000   0.01321
  11  C     d 2     -0.00015  -0.00011   0.00311   0.00463   0.02122   0.00000
  12  C     d 3      0.00023   0.00027   0.02988   0.00108  -0.02359   0.00000
  13  C     d 4     -0.00000  -0.00000   0.00000  -0.00000  -0.00000   0.00959
  14  C     d 5     -0.00002  -0.00006  -0.00066   0.00165   0.00444  -0.00000
  15  O     s       -0.99687  -0.00007  -0.19303  -0.06238   0.03781   0.00000
  16  O     s       -0.02187  -0.00061   0.41576   0.14660  -0.08752   0.00000
  17  O     s        0.01089   0.00131   0.38925   0.14244  -0.14784  -0.00000
  18  O     px       0.00000   0.00000   0.00000   0.00000   0.00000  -0.27384
  19  O     py       0.00138  -0.00004  -0.07989  -0.09350  -0.33992  -0.00000
  20  O     pz      -0.00100   0.00008   0.07530  -0.17822  -0.23876   0.00000
  21  O     px      -0.00000  -0.00000  -0.00000   0.00000   0.00000  -0.17883
  22  O     py      -0.00078  -0.00072  -0.00369  -0.01780  -0.15971  -0.00000
  23  O     pz       0.00290   0.00133   0.03406  -0.09445  -0.09526   0.00000
  24  O     d 1      0.00000  -0.00000  -0.00000   0.00000   0.00000   0.00770
  25  O     d 2     -0.00020  -0.00010  -0.00072   0.00462  -0.00278  -0.00000
  26  O     d 3      0.00022   0.00075   0.00739  -0.01133  -0.01270   0.00000
  27  O     d 4     -0.00000  -0.00000   0.00000  -0.00000  -0.00000  -0.01353
  28  O     d 5      0.00014  -0.00019  -0.00492  -0.00380  -0.00991   0.00000
  29  H 1   s        0.00070   0.00124   0.03592  -0.18872  -0.04358  -0.00000
  30  H 1   s        0.00041  -0.00211   0.00576  -0.03335  -0.00490  -0.00000
  31  H 1   px      -0.00000  -0.00000  -0.00000  -0.00000   0.00000  -0.01347
  32  H 1   py      -0.00013  -0.00146  -0.00564   0.02147   0.00019   0.00000
  33  H 1   pz      -0.00027  -0.00065  -0.00526   0.00584   0.00508   0.00000
  34  H 2   s       -0.00017  -0.00067   0.16778   0.16639   0.29099  -0.00000
  35  H 2   s       -0.00020  -0.00043   0.00933   0.02770   0.08133  -0.00000
  36  H 2   px      -0.00000   0.00000   0.00000   0.00000  -0.00000  -0.01378
  37  H 2   py       0.00095  -0.00014   0.03048   0.02292   0.02519   0.00000
  38  H 2   pz       0.00011  -0.00061   0.01482   0.00443   0.01055   0.00000
  39  H 3   s        0.00062   0.00117   0.03834  -0.17363   0.15200  -0.25963
  40  H 3   s        0.00026  -0.00231   0.00332  -0.02729   0.04027  -0.09908
  41  H 3   px      -0.00006  -0.00124  -0.00682   0.01727  -0.01196   0.00661
  42  H 3   py       0.00008   0.00076   0.00391  -0.01083   0.00055  -0.01049
  43  H 3   pz      -0.00027  -0.00055  -0.00484   0.00473   0.00088   0.00623
  44  H 4   s        0.00062   0.00117   0.03834  -0.17363   0.15200   0.25963
  45  H 4   s        0.00026  -0.00231   0.00332  -0.02729   0.04027   0.09908
  46  H 4   px       0.00006   0.00124   0.00682  -0.01727   0.01196   0.00661
  47  H 4   py       0.00008   0.00076   0.00391  -0.01083   0.00055   0.01049
  48  H 4   pz      -0.00027  -0.00055  -0.00484   0.00473   0.00088  -0.00623
                         7         8         9        10        11        12
 eigenvalues:         -0.517    -0.420    -0.357     0.145     0.187     0.227
   1  C     s        0.00232  -0.00879   0.00000  -0.06281   0.11042   0.00000
   2  C     s       -0.01297   0.03071   0.00000   0.05147  -0.16330  -0.00000
   3  C     s       -0.00584  -0.01423  -0.00000   1.19120  -1.68551  -0.00000
   4  C     px      -0.00000  -0.00000   0.19118   0.00000  -0.00000  -0.40384
   5  C     py       0.28219   0.28239   0.00000  -0.06952  -0.06412   0.00000
   6  C     pz       0.29032  -0.11706  -0.00000   0.17206  -0.04299   0.00000
   7  C     px      -0.00000  -0.00000   0.03612   0.00000  -0.00000  -1.26820
   8  C     py       0.14165   0.07999  -0.00000  -0.17025  -0.21904   0.00000
   9  C     pz       0.10621  -0.00788   0.00000   0.31962  -0.22584   0.00000
  10  C     d 1     -0.00000   0.00000  -0.01077  -0.00000   0.00000  -0.00516
  11  C     d 2     -0.00114   0.03094   0.00000   0.00757   0.00639  -0.00000
  12  C     d 3     -0.02581   0.00913  -0.00000   0.01821   0.01453   0.00000
  13  C     d 4      0.00000  -0.00000   0.03977   0.00000  -0.00000   0.00006
  14  C     d 5     -0.00758  -0.01195   0.00000   0.00439   0.00458   0.00000
  15  O     s       -0.03251   0.05604   0.00000  -0.06234  -0.05162  -0.00000
  16  O     s        0.06544  -0.11865  -0.00000   0.10705   0.07818   0.00000
  17  O     s        0.13294  -0.24918  -0.00000   0.58155   0.53554   0.00000
  18  O     px      -0.00000   0.00000  -0.57825  -0.00000   0.00000   0.06819
  19  O     py       0.11411  -0.38955  -0.00000  -0.19800  -0.16002  -0.00000
  20  O     pz      -0.36226   0.20615   0.00000  -0.04383   0.04422   0.00000
  21  O     px      -0.00000   0.00000  -0.44780  -0.00000   0.00000   0.17899
  22  O     py       0.08816  -0.25102  -0.00000  -0.26964  -0.22194  -0.00000
  23  O     pz      -0.20709   0.17204   0.00000  -0.13607   0.03986   0.00000
  24  O     d 1      0.00000  -0.00000   0.01293   0.00000  -0.00000  -0.00580
  25  O     d 2      0.01862  -0.00388  -0.00000  -0.00394  -0.00556   0.00000
  26  O     d 3     -0.00810  -0.00011   0.00000  -0.00122  -0.00829  -0.00000
  27  O     d 4     -0.00000   0.00000  -0.00562   0.00000  -0.00000  -0.00996
  28  O     d 5      0.00096  -0.01170  -0.00000  -0.00526  -0.00384  -0.00000
  29  H 1   s        0.29722   0.25036   0.00000  -0.01776   0.05609  -0.00000
  30  H 1   s        0.10126   0.12864   0.00000  -0.30456   1.12832  -0.00000
  31  H 1   px       0.00000  -0.00000   0.00864  -0.00000  -0.00000  -0.00946
  32  H 1   py      -0.01532  -0.00475  -0.00000  -0.00426  -0.00401  -0.00000
  33  H 1   pz      -0.00112  -0.00904  -0.00000   0.01143   0.00714   0.00000
  34  H 2   s        0.06481   0.21673   0.00000  -0.12603  -0.11089   0.00000
  35  H 2   s        0.05325   0.06064   0.00000  -0.92622  -0.82055  -0.00000
  36  H 2   px      -0.00000   0.00000  -0.02978  -0.00000   0.00000   0.01456
  37  H 2   py       0.01218   0.00660  -0.00000   0.00295  -0.00350  -0.00000
  38  H 2   pz      -0.01805   0.01716  -0.00000   0.00285   0.01277  -0.00000
  39  H 3   s       -0.03462  -0.15910   0.20991  -0.03837   0.02406   0.06346
  40  H 3   s       -0.00633  -0.09987   0.13510  -0.63890   0.70156   1.66811
  41  H 3   px       0.00254   0.01015  -0.00261  -0.00154  -0.00046  -0.00345
  42  H 3   py       0.00669   0.00616   0.00571   0.00321   0.00329  -0.00472
  43  H 3   pz       0.00743  -0.00085  -0.00170   0.01051   0.00715  -0.00324
  44  H 4   s       -0.03462  -0.15910  -0.20991  -0.03837   0.02406  -0.06346
  45  H 4   s       -0.00633  -0.09987  -0.13510  -0.63890   0.70156  -1.66811
  46  H 4   px      -0.00254  -0.01015  -0.00261   0.00154   0.00046  -0.00345
  47  H 4   py       0.00669   0.00616  -0.00571   0.00321   0.00329   0.00472
  48  H 4   pz       0.00743  -0.00085   0.00170   0.01051   0.00715   0.00324
                        13        14        15        16        17        18
 eigenvalues:          0.228     0.293     0.547     0.564     0.599     0.662
   1  C     s       -0.01725  -0.05108   0.00375  -0.00000  -0.02600   0.00910
   2  C     s        0.01860   0.07344  -0.03507  -0.00000   0.42718   0.01130
   3  C     s        0.23942   0.71623   0.01322   0.00000  -0.38151  -0.13453
   4  C     px      -0.00000  -0.00000  -0.00000  -0.21389   0.00000   0.00000
   5  C     py      -0.37558   0.04882  -0.21117   0.00000  -0.08689  -0.46937
   6  C     pz      -0.06499  -0.28501   0.10378   0.00000  -0.87426   0.29931
   7  C     px      -0.00000  -0.00000   0.00000   1.20116   0.00000  -0.00000
   8  C     py      -1.22493   0.27281   1.00426  -0.00000   0.40977   1.25676
   9  C     pz      -0.26888  -1.38934  -0.04639  -0.00000   1.37993  -0.27533
  10  C     d 1     -0.00000  -0.00000   0.00000   0.17131   0.00000   0.00000
  11  C     d 2      0.00698   0.00619  -0.09828   0.00000   0.01867   0.16131
  12  C     d 3     -0.00566  -0.03120   0.02165   0.00000  -0.10962   0.12360
  13  C     d 4      0.00000   0.00000  -0.00000  -0.04048  -0.00000  -0.00000
  14  C     d 5     -0.01204   0.00932   0.15909  -0.00000   0.02964  -0.03119
  15  O     s        0.02086   0.05483   0.01435  -0.00000   0.00401  -0.01839
  16  O     s       -0.02652  -0.06672  -0.05171   0.00000  -0.14851   0.14726
  17  O     s       -0.26168  -0.73311  -0.09554  -0.00000   0.64737  -0.37302
  18  O     px       0.00000   0.00000  -0.00000  -0.18782  -0.00000  -0.00000
  19  O     py       0.09715  -0.11540  -0.03267   0.00000  -0.04881  -0.28985
  20  O     pz      -0.06137  -0.35305   0.12728   0.00000  -0.27518   0.11823
  21  O     px       0.00000   0.00000  -0.00000  -0.20600  -0.00000   0.00000
  22  O     py       0.21346  -0.21200  -0.16694   0.00000  -0.17982  -0.18397
  23  O     pz      -0.09995  -0.73924   0.01155  -0.00000   0.08501  -0.15157
  24  O     d 1     -0.00000   0.00000   0.00000   0.01023   0.00000  -0.00000
  25  O     d 2     -0.01028   0.00372   0.02215  -0.00000  -0.00937  -0.05626
  26  O     d 3      0.00089  -0.00347  -0.01712  -0.00000   0.07746  -0.00797
  27  O     d 4     -0.00000   0.00000   0.00000   0.00930   0.00000   0.00000
  28  O     d 5      0.00089   0.00237  -0.01370   0.00000   0.01370   0.06082
  29  H 1   s        0.11155   0.05576  -0.78323   0.00000  -0.21503   0.02824
  30  H 1   s        1.80666  -0.17528   0.31038  -0.00000  -0.22988  -0.86984
  31  H 1   px      -0.00000  -0.00000   0.00000   0.08328   0.00000   0.00000
  32  H 1   py       0.00291   0.00967  -0.04085   0.00000   0.02791   0.05732
  33  H 1   pz      -0.00558  -0.01385  -0.01114   0.00000  -0.00585   0.08441
  34  H 2   s       -0.00272  -0.06733   0.24159   0.00000  -0.40905  -0.94890
  35  H 2   s        0.13903  -0.83165   0.01803  -0.00000   0.62601   0.88308
  36  H 2   px       0.00000   0.00000  -0.00000  -0.00758  -0.00000   0.00000
  37  H 2   py       0.00413   0.00884  -0.03459  -0.00000   0.04961   0.16244
  38  H 2   pz       0.00841  -0.00526  -0.07083   0.00000  -0.09841   0.08005
  39  H 3   s       -0.05297   0.10564   0.39831  -0.69943  -0.05556  -0.05793
  40  H 3   s       -0.97184   0.26015  -0.15734   0.10054  -0.04314   0.50751
  41  H 3   px      -0.00351   0.01240   0.03933   0.00314   0.01779  -0.06631
  42  H 3   py      -0.00833   0.00075   0.04875   0.04948   0.00137   0.03954
  43  H 3   pz      -0.00259  -0.01773   0.01735  -0.01125  -0.04034  -0.03638
  44  H 4   s       -0.05297   0.10564   0.39831   0.69943  -0.05556  -0.05793
  45  H 4   s       -0.97184   0.26015  -0.15734  -0.10054  -0.04314   0.50751
  46  H 4   px       0.00351  -0.01240  -0.03933   0.00314  -0.01779   0.06631
  47  H 4   py      -0.00833   0.00075   0.04875  -0.04948   0.00137   0.03954
  48  H 4   pz      -0.00259  -0.01773   0.01735   0.01125  -0.04034  -0.03638
                        19        20        21        22        23        24
 eigenvalues:          0.730     0.747     0.752     0.971     0.994     1.047
   1  C     s        0.00000  -0.07964  -0.01541   0.01283  -0.00000  -0.09775
   2  C     s       -0.00000   0.62252   0.03067   0.25540  -0.00000  -1.57224
   3  C     s        0.00000  -0.75615   0.06677  -0.99663   0.00000   4.38856
   4  C     px      -0.88450  -0.00000  -0.00000  -0.00000  -0.03355   0.00000
   5  C     py       0.00000   0.13138  -0.73424   0.09657   0.00000   0.04979
   6  C     pz      -0.00000   0.20124  -0.08075   0.18757  -0.00000  -0.24911
   7  C     px       1.97720   0.00000   0.00000   0.00000   0.06421  -0.00000
   8  C     py       0.00000  -0.31882   1.54509  -0.11696  -0.00000  -0.10427
   9  C     pz       0.00000  -0.47329   0.07172  -0.09986  -0.00000   0.33610
  10  C     d 1     -0.20693  -0.00000  -0.00000   0.00000  -0.26496  -0.00000
  11  C     d 2      0.00000  -0.03516   0.10686   0.24318   0.00000   0.22592
  12  C     d 3     -0.00000   0.12847  -0.01357  -0.06305   0.00000   0.04326
  13  C     d 4      0.19320   0.00000   0.00000   0.00000  -0.27783  -0.00000
  14  C     d 5      0.00000   0.00438  -0.21679   0.25828   0.00000   0.07541
  15  O     s       -0.00000   0.02843   0.01848  -0.03657   0.00000   0.04101
  16  O     s        0.00000  -0.13127  -0.15231   0.06226  -0.00000  -0.27618
  17  O     s       -0.00000  -0.16092   0.19146   0.53388   0.00000  -0.37838
  18  O     px       0.01417   0.00000   0.00000   0.00000  -0.65748   0.00000
  19  O     py      -0.00000  -0.04760   0.27812   0.54327   0.00000  -0.06762
  20  O     pz       0.00000  -0.15209   0.00040  -0.16082   0.00000  -0.02434
  21  O     px      -0.16348  -0.00000  -0.00000  -0.00000   0.57133  -0.00000
  22  O     py      -0.00000   0.08937  -0.21060  -0.83426  -0.00000   0.25085
  23  O     pz      -0.00000  -0.14450  -0.01101   0.23751  -0.00000  -0.51995
  24  O     d 1      0.00507   0.00000   0.00000   0.00000  -0.01547  -0.00000
  25  O     d 2     -0.00000   0.00549   0.02171  -0.01371   0.00000  -0.03449
  26  O     d 3      0.00000  -0.00438  -0.01522  -0.00915  -0.00000  -0.04433
  27  O     d 4     -0.02372  -0.00000  -0.00000  -0.00000   0.01940   0.00000
  28  O     d 5      0.00000  -0.00262  -0.04940   0.00107  -0.00000  -0.00192
  29  H 1   s        0.00000  -0.68166   0.22080   0.04925  -0.00000  -0.49191
  30  H 1   s       -0.00000   0.88564  -1.53155   0.38505  -0.00000  -0.75567
  31  H 1   px      -0.03624  -0.00000  -0.00000   0.00000  -0.19975  -0.00000
  32  H 1   py       0.00000  -0.18444   0.16477  -0.12997  -0.00000   0.03477
  33  H 1   pz       0.00000  -0.06098   0.08751   0.21121   0.00000   0.12691
  34  H 2   s       -0.00000   0.11616   0.60444  -0.34792  -0.00000   0.09165
  35  H 2   s        0.00000  -0.33755  -0.58183  -0.19470  -0.00000  -0.22835
  36  H 2   px       0.01300  -0.00000   0.00000  -0.00000   0.05167  -0.00000
  37  H 2   py       0.00000  -0.00439  -0.16688  -0.22469  -0.00000  -0.07522
  38  H 2   pz       0.00000   0.02521  -0.05607  -0.01418   0.00000   0.26411
  39  H 3   s        0.27426  -0.64029  -0.24923   0.02775  -0.03568  -0.42683
  40  H 3   s       -1.62338   0.53928   0.87096   0.13574  -0.09105  -0.79664
  41  H 3   px       0.15092  -0.13140  -0.10400   0.10187   0.02215   0.09710
  42  H 3   py      -0.10540   0.07457   0.02067   0.12706  -0.12278   0.02719
  43  H 3   pz       0.08688  -0.00552  -0.03319  -0.13411  -0.23495   0.03690
  44  H 4   s       -0.27426  -0.64029  -0.24923   0.02775   0.03568  -0.42683
  45  H 4   s        1.62338   0.53928   0.87096   0.13574   0.09105  -0.79664
  46  H 4   px       0.15092   0.13140   0.10400  -0.10187   0.02215  -0.09710
  47  H 4   py       0.10540   0.07457   0.02067   0.12706   0.12278   0.02719
  48  H 4   pz      -0.08688  -0.00552  -0.03319  -0.13411   0.23495   0.03690
                        25        26        27        28        29        30
 eigenvalues:          1.107     1.166     1.294     1.436     1.499     1.500
   1  C     s       -0.01882  -0.00000   0.05569  -0.00000   0.00000   0.02055
   2  C     s       -0.36403  -0.00000   0.88762  -0.00000   0.00000   0.37942
   3  C     s       -0.33954   0.00000  -2.24376   0.00000  -0.00000  -0.43518
   4  C     px      -0.00000   0.10548  -0.00000  -0.00609   0.01251  -0.00000
   5  C     py      -0.14287   0.00000  -0.07374  -0.00000   0.00000   0.00117
   6  C     pz       0.22979  -0.00000  -0.13626   0.00000  -0.00000  -0.15363
   7  C     px       0.00000  -0.66440   0.00000  -0.51688  -0.03895   0.00000
   8  C     py       0.35157  -0.00000  -0.32039   0.00000   0.00000   0.28016
   9  C     pz       0.89208   0.00000   0.26970   0.00000  -0.00000  -0.26764
  10  C     d 1      0.00000   0.10156   0.00000   0.22685   0.00594  -0.00000
  11  C     d 2     -0.05533   0.00000   0.49366   0.00000   0.00000   0.02791
  12  C     d 3     -0.38316   0.00000  -0.00731  -0.00000   0.00000   0.16737
  13  C     d 4     -0.00000   0.50874  -0.00000   0.06349  -0.01422   0.00000
  14  C     d 5     -0.05302  -0.00000   0.04296   0.00000  -0.00000  -0.14756
  15  O     s       -0.04366   0.00000   0.01632  -0.00000   0.00000   0.00153
  16  O     s        0.27579  -0.00000  -0.04274  -0.00000  -0.00000  -0.06801
  17  O     s        0.17543   0.00000   0.03942   0.00000   0.00000   0.12118
  18  O     px      -0.00000  -0.62051  -0.00000  -0.25054   0.01683  -0.00000
  19  O     py      -0.02395  -0.00000  -0.42582  -0.00000   0.00000   0.23570
  20  O     pz      -0.71730  -0.00000  -0.09254   0.00000  -0.00000  -0.02668
  21  O     px       0.00000   0.92921   0.00000   0.81902  -0.06738   0.00000
  22  O     py       0.19074   0.00000   1.46453   0.00000  -0.00000  -0.58207
  23  O     pz       1.64780  -0.00000   0.49771   0.00000  -0.00000  -0.56836
  24  O     d 1      0.00000  -0.01317   0.00000   0.16181  -0.02290   0.00000
  25  O     d 2      0.00297  -0.00000  -0.08221   0.00000  -0.00000  -0.09582
  26  O     d 3     -0.02245  -0.00000   0.00034  -0.00000   0.00000   0.00849
  27  O     d 4      0.00000  -0.08797   0.00000   0.01254  -0.00466   0.00000
  28  O     d 5      0.01456  -0.00000  -0.07727   0.00000  -0.00000  -0.01051
  29  H 1   s       -0.15645  -0.00000   0.23098  -0.00000  -0.00000  -0.03078
  30  H 1   s       -0.33068  -0.00000   0.30446  -0.00000   0.00000   0.03130
  31  H 1   px       0.00000   0.10022  -0.00000  -0.15453  -0.55357   0.00000
  32  H 1   py       0.07987   0.00000  -0.05153  -0.00000   0.00000   0.21259
  33  H 1   pz      -0.13302   0.00000   0.10615   0.00000  -0.00000  -0.40075
  34  H 2   s        0.00663   0.00000   0.81103   0.00000  -0.00000  -0.39332
  35  H 2   s        0.88053  -0.00000   0.37386  -0.00000  -0.00000  -0.10349
  36  H 2   px      -0.00000   0.27460  -0.00000  -0.93483   0.12033  -0.00000
  37  H 2   py       0.15251  -0.00000   0.06598   0.00000  -0.00000  -0.33320
  38  H 2   pz       0.11920   0.00000   0.38866  -0.00000   0.00000   0.56367
  39  H 3   s       -0.03578   0.03511   0.30923   0.17917   0.02468   0.20283
  40  H 3   s       -0.11217   0.22627   0.21222   0.18840   0.00383   0.13529
  41  H 3   px      -0.01241  -0.04200   0.04046  -0.00802   0.32475  -0.02825
  42  H 3   py      -0.00207   0.07195   0.11172   0.03768   0.52278   0.17603
  43  H 3   pz      -0.00823   0.16493  -0.01201   0.10455  -0.01679   0.34235
  44  H 4   s       -0.03578  -0.03511   0.30923  -0.17917  -0.02468   0.20283
  45  H 4   s       -0.11217  -0.22627   0.21222  -0.18840  -0.00383   0.13529
  46  H 4   px       0.01241  -0.04200  -0.04046  -0.00802   0.32475   0.02825
  47  H 4   py      -0.00207  -0.07195   0.11172  -0.03768  -0.52278   0.17603
  48  H 4   pz      -0.00823  -0.16493  -0.01201  -0.10455   0.01679   0.34235
                        31        32        33        34        35        36
 eigenvalues:          1.680     1.716     1.746     1.767     1.853     1.968
   1  C     s       -0.00000  -0.00831   0.01711  -0.00000  -0.04826   0.01139
   2  C     s       -0.00000   0.04199  -0.06665  -0.00000  -0.35692  -0.04008
   3  C     s        0.00000   0.16341  -0.30785   0.00000   1.84610  -1.01074
   4  C     px       0.09113   0.00000   0.00000   0.14637  -0.00000  -0.00000
   5  C     py       0.00000  -0.10356  -0.09228   0.00000  -0.05404  -0.05701
   6  C     pz       0.00000  -0.08981   0.13274  -0.00000  -0.18276   0.26302
   7  C     px      -1.25547  -0.00000  -0.00000  -0.18235  -0.00000   0.00000
   8  C     py      -0.00000   1.15505   0.38466  -0.00000  -0.57749  -0.74659
   9  C     pz       0.00000  -0.47306   1.06615  -0.00000  -0.59714  -0.03129
  10  C     d 1      0.40518   0.00000   0.00000   0.52653   0.00000   0.00000
  11  C     d 2     -0.00000   0.20730   0.41485  -0.00000   0.30520   0.52843
  12  C     d 3     -0.00000   0.39618  -0.67290   0.00000   0.68037  -0.28602
  13  C     d 4      0.10208   0.00000  -0.00000  -0.72148   0.00000   0.00000
  14  C     d 5      0.00000  -0.55522  -0.36383   0.00000  -0.15829   0.06060
  15  O     s       -0.00000   0.01809  -0.04105   0.00000   0.03906  -0.01268
  16  O     s       -0.00000   0.11100  -0.10627   0.00000   1.11185  -0.75834
  17  O     s        0.00000  -0.65610   1.13064  -0.00000  -2.66030   1.32712
  18  O     px      -0.08637  -0.00000  -0.00000  -0.15352  -0.00000   0.00000
  19  O     py      -0.00000   0.19257   0.04982  -0.00000   0.11327  -0.00439
  20  O     pz       0.00000  -0.25548   0.44379  -0.00000  -0.04525  -0.10924
  21  O     px       0.42028   0.00000  -0.00000  -0.08509   0.00000  -0.00000
  22  O     py       0.00000  -0.42183  -0.17973   0.00000   0.63912   0.14324
  23  O     pz       0.00000  -0.08353   0.08836  -0.00000  -0.48861   0.96289
  24  O     d 1      0.03203   0.00000  -0.00000  -0.01695  -0.00000   0.00000
  25  O     d 2      0.00000  -0.00748  -0.06856   0.00000  -0.01032  -0.01855
  26  O     d 3     -0.00000   0.01434  -0.02523   0.00000   0.10240  -0.07161
  27  O     d 4     -0.08481  -0.00000   0.00000   0.15866  -0.00000   0.00000
  28  O     d 5      0.00000  -0.02322  -0.03028   0.00000  -0.12380   0.08834
  29  H 1   s        0.00000  -0.59748  -0.62995   0.00000  -0.09572   0.13237
  30  H 1   s        0.00000  -0.17715   0.01159  -0.00000   0.15686   0.57279
  31  H 1   px       0.50665   0.00000  -0.00000  -0.09844   0.00000  -0.00000
  32  H 1   py       0.00000  -0.38192  -0.12767   0.00000   0.13335  -0.03846
  33  H 1   pz      -0.00000   0.27788  -0.50567   0.00000  -0.43401  -0.16065
  34  H 2   s        0.00000  -0.10933  -0.15975   0.00000   0.62193  -0.05645
  35  H 2   s       -0.00000   0.09713   0.14414  -0.00000   0.04514  -0.03260
  36  H 2   px      -0.03713  -0.00000   0.00000   0.26560  -0.00000   0.00000
  37  H 2   py       0.00000   0.01089  -0.04803   0.00000   0.39874   0.23829
  38  H 2   pz      -0.00000   0.08424   0.02507  -0.00000  -0.19134  -0.66357
  39  H 3   s        0.48287   0.46274   0.02756   0.48052  -0.09091   0.04478
  40  H 3   s        0.31480   0.08698  -0.06343  -0.23282  -0.32277  -0.13268
  41  H 3   px       0.40946   0.02150   0.05718   0.07146   0.20282   0.01396
  42  H 3   py      -0.00412  -0.34098  -0.04596  -0.13964   0.26593   0.13916
  43  H 3   pz      -0.42364   0.09733  -0.23374   0.44612  -0.05301   0.53389
  44  H 4   s       -0.48287   0.46274   0.02756  -0.48052  -0.09091   0.04478
  45  H 4   s       -0.31480   0.08698  -0.06343   0.23282  -0.32277  -0.13268
  46  H 4   px       0.40946  -0.02150  -0.05718   0.07146  -0.20282  -0.01396
  47  H 4   py       0.00412  -0.34098  -0.04596   0.13964   0.26593   0.13916
  48  H 4   pz       0.42364   0.09733  -0.23374  -0.44612  -0.05301   0.53389
                        37        38        39        40        41        42
 eigenvalues:          2.069     2.159     2.169     2.237     2.489     2.499
   1  C     s        0.00322   0.01833  -0.00000  -0.00200   0.00000  -0.05020
   2  C     s       -0.07859   0.41622  -0.00000  -0.00023  -0.00000   1.01207
   3  C     s        0.21650  -0.96224   0.00000   0.03877  -0.00000   1.84293
   4  C     px       0.00000  -0.00000  -0.14648   0.00000  -1.26784  -0.00000
   5  C     py       0.04597   0.01833  -0.00000  -0.28479  -0.00000   0.34565
   6  C     pz      -0.27910   0.32693  -0.00000   0.14170  -0.00000   0.57056
   7  C     px      -0.00000  -0.00000  -0.72959   0.00000  -1.12161  -0.00000
   8  C     py      -0.08197  -0.14590  -0.00000  -0.63042  -0.00000   0.36665
   9  C     pz      -0.54418   0.81686  -0.00000  -0.04656  -0.00000   0.26437
  10  C     d 1     -0.00000  -0.00000  -0.83347   0.00000   1.13108   0.00000
  11  C     d 2     -0.23580  -0.21174   0.00000  -0.53977  -0.00000   0.30370
  12  C     d 3     -0.50168   0.28763  -0.00000  -0.12929   0.00000  -0.70324
  13  C     d 4     -0.00000  -0.00000  -0.56021   0.00000  -0.64775  -0.00000
  14  C     d 5     -0.45686  -0.38486   0.00000  -0.56061   0.00000  -0.22872
  15  O     s        0.01982   0.00428  -0.00000  -0.03097   0.00000  -0.00127
  16  O     s        0.37384  -1.21637   0.00000   0.02125  -0.00000   0.41325
  17  O     s       -1.16530   1.52509  -0.00000   0.84154   0.00000  -0.41405
  18  O     px      -0.00000  -0.00000  -0.13709   0.00000  -0.04023  -0.00000
  19  O     py       0.31136   0.27864  -0.00000  -0.48242   0.00000  -0.03675
  20  O     pz       0.33272  -0.10409   0.00000  -0.12895  -0.00000   0.18689
  21  O     px       0.00000   0.00000   0.24032  -0.00000   0.06517   0.00000
  22  O     py       0.04552  -0.05960   0.00000  -0.22404   0.00000   0.00596
  23  O     pz      -0.35325   0.61098  -0.00000  -0.01986   0.00000  -0.15911
  24  O     d 1     -0.00000  -0.00000  -0.09410   0.00000   0.11227   0.00000
  25  O     d 2      0.11410   0.09019  -0.00000   0.07455   0.00000  -0.04233
  26  O     d 3      0.04063  -0.06186   0.00000   0.02469  -0.00000   0.05618
  27  O     d 4      0.00000   0.00000   0.15253  -0.00000   0.11474   0.00000
  28  O     d 5     -0.09282  -0.02422   0.00000   0.11882   0.00000  -0.06039
  29  H 1   s       -0.10598  -0.03248   0.00000   0.15499   0.00000  -1.14283
  30  H 1   s        0.13484   0.03110   0.00000   0.42379   0.00000  -0.64564
  31  H 1   px       0.00000   0.00000   0.92834  -0.00000  -0.00744  -0.00000
  32  H 1   py      -0.26478   0.30602  -0.00000  -0.31446  -0.00000   1.11669
  33  H 1   pz       0.58831  -0.09016   0.00000   0.20115  -0.00000   0.54189
  34  H 2   s        0.20724  -0.04171  -0.00000  -0.48548   0.00000  -0.00373
  35  H 2   s        0.13203   0.29957  -0.00000  -0.35869  -0.00000   0.06927
  36  H 2   px      -0.00000  -0.00000  -0.14042   0.00000   0.13593   0.00000
  37  H 2   py       0.61106   0.56586  -0.00000  -0.80724   0.00000  -0.04810
  38  H 2   pz       0.29493   0.21084  -0.00000  -0.30482   0.00000  -0.03263
  39  H 3   s        0.01710   0.10156   0.04089  -0.13942   1.18301  -0.55774
  40  H 3   s        0.05976  -0.11585   0.36561  -0.20384   0.68092  -0.26929
  41  H 3   px      -0.04822   0.39919   0.07945   0.50565  -0.93823   0.50887
  42  H 3   py       0.42744   0.13048   0.47920   0.40333   0.51939  -0.35069
  43  H 3   pz       0.24500  -0.35031   0.29596  -0.03797  -0.40539   0.30130
  44  H 4   s        0.01710   0.10156  -0.04089  -0.13942  -1.18301  -0.55774
  45  H 4   s        0.05976  -0.11585  -0.36561  -0.20384  -0.68092  -0.26929
  46  H 4   px       0.04822  -0.39919   0.07945  -0.50565  -0.93823  -0.50887
  47  H 4   py       0.42744   0.13048  -0.47920   0.40333  -0.51939  -0.35069
  48  H 4   pz       0.24500  -0.35031  -0.29596  -0.03797   0.40539   0.30130
                        43        44        45        46        47        48
 eigenvalues:          2.515     3.027     3.115     3.177     3.292     3.748
   1  C     s        0.01614   0.00000  -0.00000   0.01571  -0.04136  -0.01154
   2  C     s       -0.34713   0.00000   0.00000  -0.24419   0.19543   0.03008
   3  C     s       -0.66389  -0.00000  -0.00000  -0.54710   0.81919   0.04676
   4  C     px      -0.00000  -0.14196  -0.17422   0.00000   0.00000  -0.00000
   5  C     py       1.18896   0.00000   0.00000  -0.16684   0.01125  -0.02746
   6  C     pz      -0.02035  -0.00000  -0.00000   0.35530  -0.49246  -0.10383
   7  C     px      -0.00000  -0.26919   0.07234   0.00000   0.00000  -0.00000
   8  C     py       0.93799   0.00000   0.00000  -0.10969  -0.08007   0.03868
   9  C     pz       0.03516   0.00000  -0.00000   0.19391  -0.52345  -0.18129
  10  C     d 1      0.00000   0.33885   0.13372  -0.00000  -0.00000   0.00000
  11  C     d 2      0.64589  -0.00000  -0.00000  -0.53579  -0.39059   0.02291
  12  C     d 3      0.21209  -0.00000   0.00000  -0.32582   0.45871   0.16079
  13  C     d 4     -0.00000   0.19106  -0.72050  -0.00000   0.00000  -0.00000
  14  C     d 5     -1.16209  -0.00000  -0.00000   0.13972  -0.05768   0.13363
  15  O     s       -0.01408  -0.00000   0.00000  -0.03363   0.04069  -0.03730
  16  O     s       -0.15195  -0.00000   0.00000  -0.45028   0.46902  -0.09852
  17  O     s        0.54378   0.00000  -0.00000   1.23009  -1.48035   1.15923
  18  O     px      -0.00000  -0.04419   0.01623   0.00000   0.00000   0.00000
  19  O     py      -0.11414   0.00000   0.00000  -0.02662   0.08486  -0.30284
  20  O     pz      -0.12705  -0.00000   0.00000  -0.05227  -0.00897  -0.12164
  21  O     px       0.00000   0.33271  -0.19101  -0.00000  -0.00000  -0.00000
  22  O     py      -0.21013   0.00000   0.00000  -0.48481  -0.00562  -0.98632
  23  O     pz       0.21188   0.00000  -0.00000   0.58109  -0.66231  -0.51986
  24  O     d 1      0.00000  -1.01058  -0.19604   0.00000   0.00000  -0.00000
  25  O     d 2     -0.07808  -0.00000  -0.00000  -0.72733  -0.52752   0.66990
  26  O     d 3     -0.01855  -0.00000  -0.00000   0.33255  -0.97227  -0.51191
  27  O     d 4      0.00000   0.17442  -1.00761  -0.00000   0.00000  -0.00000
  28  O     d 5     -0.06648   0.00000   0.00000  -0.66678   0.09795  -0.93883
  29  H 1   s       -1.08715   0.00000  -0.00000   0.31867   0.12711   0.10114
  30  H 1   s       -0.55350   0.00000  -0.00000   0.13192   0.03378   0.08324
  31  H 1   px      -0.00000  -0.11931   0.05607  -0.00000  -0.00000  -0.00000
  32  H 1   py       0.91011  -0.00000   0.00000  -0.29394  -0.11626  -0.05924
  33  H 1   pz       0.42005   0.00000   0.00000   0.08930   0.08758  -0.13353
  34  H 2   s       -0.19696   0.00000   0.00000  -0.41613   0.21294  -1.46209
  35  H 2   s       -0.05396   0.00000   0.00000  -0.00140  -0.12587  -0.35352
  36  H 2   px       0.00000  -0.46984  -0.15792   0.00000   0.00000  -0.00000
  37  H 2   py      -0.25261   0.00000   0.00000  -0.04035   0.22114  -1.00359
  38  H 2   pz      -0.23209  -0.00000   0.00000  -0.36816  -0.17753  -0.34149
  39  H 3   s        0.87499   0.17274   0.25154  -0.14990  -0.05200  -0.00755
  40  H 3   s        0.45359   0.10741  -0.01833  -0.00104  -0.04588   0.03822
  41  H 3   px      -0.65856  -0.09179  -0.21389   0.11826   0.08415  -0.02548
  42  H 3   py       0.47740  -0.02057   0.14128  -0.01844   0.05001  -0.05492
  43  H 3   pz      -0.32544  -0.13194   0.15530   0.01612  -0.05142   0.05537
  44  H 4   s        0.87499  -0.17274  -0.25154  -0.14990  -0.05200  -0.00755
  45  H 4   s        0.45359  -0.10741   0.01833  -0.00104  -0.04588   0.03822
  46  H 4   px       0.65856  -0.09179  -0.21389  -0.11826  -0.08415   0.02548
  47  H 4   py       0.47740   0.02057  -0.14128  -0.01844   0.05001  -0.05492
  48  H 4   pz      -0.32544   0.13194  -0.15530   0.01612  -0.05142   0.05537

          Ground-State Mulliken Net Atomic Charges

     Atom                 Charge (a.u.)    Spin (a.u.)
  --------------------------------------------------------
      1 C                     0.048058      -0.000000
      2 O                    -0.302545      -0.000000
      3 H                     0.049505       0.000000
      4 H                     0.158237      -0.000000
      5 H                     0.023372       0.000000
      6 H                     0.023372      -0.000000
  --------------------------------------------------------
  Sum of atomic charges =    -0.000000
  Sum of spin   charges =    -0.000000

 -----------------------------------------------------------------
                    Cartesian Multipole Moments
 -----------------------------------------------------------------
    Charge (ESU x 10^10)
                -0.0000
    Dipole Moment (Debye)
         X      -0.0000      Y      -1.4333      Z       0.7464
       Tot       1.6160
    Quadrupole Moments (Debye-Ang)
        XX     -13.4193     XY       0.0000     YY     -11.6312
        XZ      -0.0000     YZ       2.0570     ZZ     -12.8328
    Octopole Moments (Debye-Ang^2)
       XXX      -0.0000    XXY      -0.1931    XYY      -0.0000
       YYY       0.1144    XXZ      -1.5440    XYZ       0.0000
       YYZ      -3.0447    XZZ      -0.0000    YZZ      -1.3476
       ZZZ      -6.8299
    Hexadecapole Moments (Debye-Ang^3)
      XXXX     -19.2512   XXXY       0.0000   XXYY      -6.6492
      XYYY       0.0000   YYYY     -19.0598   XXXZ      -0.0000
      XXYZ      -0.4982   XYYZ      -0.0000   YYYZ       2.1526
      XXZZ     -13.6263   XYZZ       0.0000   YYZZ     -11.9824
      XZZZ      -0.0000   YZZZ       2.1572   ZZZZ     -60.5341
 -----------------------------------------------------------------
 Total job time:  1.42s(wall), 1.31s(cpu) 
 Mon Jul  6 15:09:53 2026

        *************************************************************
        *                                                           *
        *  Thank you very much for using Q-Chem.  Have a nice day.  *
        *                                                           *
        *************************************************************


