
                                 *****************
                                 * O   R   C   A *
                                 *****************

                                            #,                                       
                                            ###                                      
                                            ####                                     
                                            #####                                    
                                            ######                                   
                                           ########,                                 
                                     ,,################,,,,,                         
                               ,,#################################,,                 
                          ,,##########################################,,             
                       ,#########################################, ''#####,          
                    ,#############################################,,   '####,        
                  ,##################################################,,,,####,       
                ,###########''''           ''''###############################       
              ,#####''   ,,,,##########,,,,          '''####'''          '####       
            ,##' ,,,,###########################,,,                        '##       
           ' ,,###''''                  '''############,,,                           
         ,,##''                                '''############,,,,        ,,,,,,###''
      ,#''                                            '''#######################'''  
     '                                                          ''''####''''         
             ,#######,   #######,   ,#######,      ##                                
            ,#'     '#,  ##    ##  ,#'     '#,    #''#        ,####,    ,#,          
            ##       ##  ##   ,#'  ##            #'  '#       #'       ,# #          
            ##       ##  #######   ##           ,######,      #####,      #          
            '#,     ,#'  ##    ##  '#,     ,#' ,#      #,     #,   #      #          
             '#######'   ##     ##  '#######'  #'      '#     '####' #    #          



                #########################################################
                #                        -***-                          #
                #          Department of theory and spectroscopy        #
                #                                                       #
                #                      Frank Neese                      #
                #                                                       #
                #     Directorship, Architecture, Infrastructure        #
                #                    SHARK, DRIVERS                     #
                #        Core code/Algorithms in most modules           #
                #                                                       #
                #        Max Planck Institute fuer Kohlenforschung      #
                #                Kaiser Wilhelm Platz 1                 #
                #                 D-45470 Muelheim/Ruhr                 #
                #                      Germany                          #
                #                                                       #
                #                  All rights reserved                  #
                #                        -***-                          #
                #########################################################


                         Program Version 6.1.0  -  RELEASE   -
                                (GIT: $679e74b$)
                          ($2025-06-10 18:02:51 +0200$)


 With contributions from (in alphabetic order):
[Max-Planck-Institut fuer Kohlenforschung]                               
  Daniel Aravena         : Magnetic Suceptibility                        
  Michael Atanasov       : Ab Initio Ligand Field Theory (pilot matlab implementation)
  Alexander A. Auer      : GIAO ZORA, VPT2 properties, NMR spectrum      
  Ute Becker             : All parallelization in ORCA, NUMFREQ, NUMCALC 
  Giovanni Bistoni       : ED, misc. LED, open-shell LED, HFLD           
  Dmytro Bykov           : pre 5.0 version of the SCF Hessian            
  Marcos Casanova-Páez   : Triplet and SCS-CIS(D). UHF-(DLPNO)-IP/EA/STEOM-CCSD. UHF-CVS-IP/STEOM-CCSD   
  Vijay G. Chilkuri      : MRCI spin determinant printing, contributions to CSF-ICE 
  Pauline Colinet        : FMM embedding                                 
  Dipayan Datta          : RHF DLPNO-CCSD density                        
  Achintya Kumar Dutta   : EOM-CC, STEOM-CC                              
  Nicolas Foglia         : Exact transition moments, OPA infrastructure, MCD improvements    
  Dmitry Ganyushin       : Spin-Orbit,Spin-Spin,Magnetic field MRCI      
  Miquel Garcia-Rates    : C-PCM and meta-GGA Hessian, CCSD/C-PCM, Gaussian charge scheme 
  Tiago L. C. Gouveia    : GS-ROHF, GS-ROCIS                             
  Yang Guo               : DLPNO-NEVPT2, F12-NEVPT2, CIM, IAO-localization        
  Andreas Hansen         : Spin unrestricted coupled pair/coupled cluster methods 
  Ingolf Harden          : AUTO-CI MPn and infrastructure                
  Benjamin Helmich-Paris : MC-RPA, TRAH-(SCF,CASSCF), AVAS, COSX integrals, SCF dyn. polar., MC-PDFT, srDFT 
  Lee Huntington         : MR-EOM, pCC                                   
  Robert Izsak           : Overlap fitted RIJCOSX, COSX-SCS-MP3, EOM     
  Riya Kayal             : Wick's Theorem for AUTO-CI, AUTO-CI UHF-CCSDT 
  Emily Kempfer          : AUTO-CI RHF CISDT and CCSDT, approximate NEVPT4
  Christian Kollmar      : KDIIS, OOCD, Brueckner-CCSD(T), CCSD density, CASPT2, CASPT2-K, improved NEVPT2 
  Axel Koslowski         : Symmetry handling                             
  Simone Kossmann        : meta-GGA functionals, TD-DFT gradient, OOMP2, (MP2 Hessian; deprecated post 5.0) 
  Lucas Lang             : DCDCAS, Hyperfine gauge corrections, ICE-SOC+SSC
  Marvin Lechner         : AUTO-CI (C++ implementation), FIC-MRCC        
  Spencer Leger          : CASSCF response                               
  Dagmar Lenk            : GEPOL surface, SMD, ORCA-2-JSON               
  Dimitrios Liakos       : Extrapolation schemes; Compound Job, Property file
  Dimitrios Manganas     : Further ROCIS development; embedding schemes. LFT, Crystal Embedding 
  Dimitrios Pantazis     : SARC Basis sets                               
  Anastasios Papadopoulos: AUTO-CI, single reference methods and gradients 
  Taras Petrenko         : pre 6.0 DFT Hessian and TD-DFT gradient,  ECA, NRVS 
  Petra Pikulova         : Analytic Raman intensities                    
  Peter Pinski           : DLPNO-MP2, DLPNO-MP2 Gradient                 
  Shashank Vittal Rao    : ES-AILFT, MagRelax                            
  Christoph Reimann      : Effective Core Potentials                     
  Marius Retegan         : Local ZFS, SOC                                
  Christoph Riplinger    : Optimizer, TS searches, QM/MM, DLPNO-CCSD(T), (RO)-DLPNO pert. Triples 
  Michael Roemelt        : Original ROCIS implementation, recursive CI coupling coefficients
  Masaaki Saitow         : Open-shell DLPNO-CCSD energy and density      
  Barbara Sandhoefer     : DKH picture change effects                    
  Yorick L. A. Schmerwitz: GMF and freeze-and-release deltaSCF, NEB S-IDPP initial path                    
  Kantharuban Sivalingam : CASSCF convergence/infrastructure, NEVPT2, NEVPT3, NEVPT4(SD), FIC-MRCI and CEPA variants
  Bernardo de Souza      : ESD, SOC TD-DFT                               
  Georgi L. Stoychev     : AutoAux, RI-MP2 NMR, DLPNO-MP2 response, X2C  
  Van Anh Tran           : RI-MP2 g-tensors                              
  Willem Van den Heuvel  : Paramagnetic NMR                              
  Zikuan Wang            : NOTCH, Electric field optimization            
  Frank Wennmohs         : Technical directorship and infrastructure     
  Hang Xu                : AUTO-CI-Response properties                   
                                                                         
[FACCTs GmbH]                                                            
  Markus Bursch, Nicolas Foglia, Miquel Garcia-Rates, Ingolf Harden, Hagen Neugebauer, Anastasios Papadopoulos, 
  Christoph Riplinger, Bernardo de Souza, Georgi L. Stoychev                                                    
                                                                 
  APM, various basis sets, CI-OPT, improved COSX, DLPNO-Multilevel,           
  DOCKER, DRACO, updates on ESD, Fragmentator, GOAT, IRC, LR-CPCM, L-BFGS, MBIS, meta-GGA TD-DFT gradient, ML-optimized integration grids, 
  MM, NACMEs, nearIR, NEB, NEB-TS, NL-DFT gradient (VV10), 2- and 3-layer-ONIOM, interface openCOSMO-RS, QMMM,   
  Crystal-QMMM, RESP, rigid body optimization, SF, symmetry and pop. for TD-DFT, various functionals, SOLVATOR                                   
                                                                         
[Other institutions]                                                     
  V. Asgeirsson          : NEB                                           
  Christoph Bannwarth    : sTDA-DFT, sTD-DFT, PBEh-3c, B97-3c, D3        
  Giovanni Bistoni       : ETS/NOCV, ADLD/ADEX, COVALED                  
  Martin Brehm           : Molecular dynamics                            
  Ronald Cardenas        : ETS/NOCV                                      
  Martina Colucci        : COVALED                                       
  Sebastian Ehlert       : rSCAN, r2SCAN, r2SCAN-3c, D4, dhf basis sets  
  Marvin Friede          : D4 for Fr, Ra, Ac-Lr                          
  Lars Goerigk           : TD-DFT with DH, B97 family of functionals     
  Stefan Grimme          : VdW corrections, initial TS optimization, DFT functionals, gCP, sTDA/sTD-DF 
  Waldemar Hujo          : DFT-NL                                        
  H. Jonsson             : NEB                                           
  Holger Kruse           : gCP                                           
  Marcel Mueller         : wB97X-3c, vDZP basis set                      
  Hagen Neugebauer       : wr2SCAN, Native XTB                           
  Gianluca Regni         : ADLD/ADEX                                     
  Tobias Risthaus        : pre 6.0 range-separated hybrid DFT and stability analysis
  Lukas Wittmann         : regularized MP2, r2SCAN double-hybrids, wr2SCAN        
                                                                         
We gratefully acknowledge several colleagues who have allowed us to      
interface, adapt or use parts of their codes:                            
  Ed Valeev, F. Pavosevic, A. Kumar             : LibInt (2-el integral package), F12 methods 
  Garnet Chan, S. Sharma, J. Yang, R. Olivares  : DMRG                   
  Ulf Ekstrom                                   : XCFun DFT Library      
  Mihaly Kallay                                 : mrcc  (arbitrary order and MRCC methods)
  Frank Weinhold                                : gennbo (NPA and NBO analysis)           
  Simon Mueller                                 : openCOSMO-RS                            
  Christopher J. Cramer and Donald G. Truhlar   : smd solvation model                     
  S Lehtola, MJT Oliveira, MAL Marques          : LibXC Library                           
  Liviu Ungur et al                             : ANISO software                          


 Your calculation uses the libint2 library for the computation of 2-el integrals
 For citations please refer to: http://libint.valeyev.net

 Your ORCA version has been built with support for libXC version: 7.0.0
 For citations please refer to: https://libxc.gitlab.io

 This ORCA versions uses:
   CBLAS   interface :  Fast vector & matrix operations
   LAPACKE interface :  Fast linear algebra routines
   SCALAPACK package :  Parallel linear algebra routines
   Shared memory     :  Shared parallel matrices
   BLAS/LAPACK       :  OpenBLAS 0.3.29  USE64BITINT DYNAMIC_ARCH NO_AFFINITY Haswell SINGLE_THREADED
        Core in use  :  Haswell
   Copyright (c) 2011-2014, The OpenBLAS Project


  ***********************************
  * Starting time: Tue Jul  7 13:03:36 2026
  * Host name:     Slade190455
  * Process ID:    1649216
  * Working dir.:  /media/HDD1/guest/TDDFT_Dyson/orca
  ***********************************

NOTE: MaxCore=2000 MB was set to SCF,MP2,MDCI,CIPSI,MRCI,RASCI and CIS
      => If you want to overwrite this, your respective input block should be placed after the MaxCore statement
Your calculation utilizes the atom-pairwise dispersion correction
with the zero-damping scheme (D30)


XCFun DFT library Copyright 2009-2010 Ulf Ekstrom and contributors.
See http://admol.org/xcfun for more information.
This is free software; see the source code for copying conditions.
There is ABSOLUTELY NO WARRANTY; not even for MERCHANTABILITY or FITNESS FOR A PARTICULAR PURPOSE.
For details see the documentation.
Scientific users of this library should cite U. Ekstrom, L. Visscher, R. Bast, A. J. Thorvaldsen and K. Ruud;
J.Chem.Theor.Comp. 2010, DOI: 10.1021/ct100117s
XCFun Version 0.99 

Warning: RI is on but no J-basis has been assigned. Assigning Def2/J (nothing to worry about!)
================================================================================

----- Orbital basis set information -----
Your calculation utilizes the basis: cc-pVDZ 
       H, B-Ne : Obtained from the ccRepo (grant-hill.group.shef.ac.uk/ccrepo) Feb. 2017
                 T. H. Dunning, Jr., J. Chem. Phys. 90, 1007 (1989)
            He : Obtained from the ccRepo (grant-hill.group.shef.ac.uk/ccrepo) Feb. 2017
                 D. E. Woon, T. H. Dunning, Jr., J. Chem. Phys. 100, 2975 (1994)
  Li-Be, Na-Mg : Obtained from the ccRepo (grant-hill.group.shef.ac.uk/ccrepo) Feb. 2017
                 B. P. Prascher, D. E. Woon, K. A. Peterson, T. H. Dunning, Jr., A. K. Wilson, Theor. Chem. Acc. 128, 69 (2011)
         Al-Ar : Obtained from the ccRepo (grant-hill.group.shef.ac.uk/ccrepo) Feb. 2017
                 D. E. Woon, T. H. Dunning, Jr., J. Chem. Phys. 98, 1358 (1993)
            Ca : Obtained from the Peterson Research Group Website (tyr0.chem.wsu.edu/~kipeters) Feb. 2017
                 J. Koput, K. A. Peterson, J. Phys. Chem. 106, 9595 (2002)
         Sc-Zn : Obtained from the ccRepo (grant-hill.group.shef.ac.uk/ccrepo) Feb. 2017
                 N. B. Balabanov, K. A. Peterson, J. Chem. Phys. 123, 064107 (2005)
                 N. B. Balabanov, K. A. Peterson, J. Chem. Phys. 125, 074110 (2006)
         Ga-Kr : Obtained from the ccRepo (grant-hill.group.shef.ac.uk/ccrepo) Feb. 2017
                 A. K. Wilson, D. E. Woon, K. A. Peterson, T. H. Dunning, Jr., J. Chem. Phys. 110, 7667 (1999)

----- AuxJ basis set information -----
Your calculation utilizes the auxiliary basis: def2/J
   H-Rn: F. Weigend, Phys. Chem. Chem. Phys. 8, 1057 (2006).
   Fr-Lr: K. Eichkorn, F. Weigend, O. Treutler, R. Ahlrichs; Theor. Chem. Acc. 97, 119 (1997).

================================================================================
                                        WARNINGS
                       Please study these warnings very carefully!
================================================================================


================================================================================
                                       INPUT FILE
================================================================================
NAME = MeOH_n.in
|  1> ! UKS wB97X-D3 cc-pVDZ TightSCF NoSym
|  2> 
|  3> %pal
|  4>   nprocs 4
|  5> end
|  6> 
|  7> %maxcore 2000
|  8> 
|  9> %scf
| 10>   MaxIter 2000
| 11> end
| 12> 
| 13> %output
| 14>   Print[P_Basis] 2
| 15>   Print[P_MOs] 1
| 16> end
| 17> 
| 18> * xyz 0 1
| 19>  C    0.0000000   -0.0147269    0.7156012
| 20>  O    0.0000000    0.0695525   -0.6801439
| 21>  H    0.0000000    1.0112743    1.1376602
| 22>  H    0.0000000   -0.8665191   -1.0095561
| 23>  H    0.9151188   -0.5366486    1.0703452
| 24>  H   -0.9151188   -0.5366486    1.0703452
| 25> *
| 26> 
| 27>                          ****END OF INPUT****
================================================================================

                       ****************************
                       * Single Point Calculation *
                       ****************************

---------------------------------
CARTESIAN COORDINATES (ANGSTROEM)
---------------------------------
  C      0.000000   -0.014727    0.715601
  O      0.000000    0.069553   -0.680144
  H      0.000000    1.011274    1.137660
  H      0.000000   -0.866519   -1.009556
  H      0.915119   -0.536649    1.070345
  H     -0.915119   -0.536649    1.070345

----------------------------
CARTESIAN COORDINATES (A.U.)
----------------------------
  NO LB      ZA    FRAG     MASS         X           Y           Z
   0 C     6.0000    0    12.011    0.000000   -0.027830    1.352290
   1 O     8.0000    0    15.999    0.000000    0.131435   -1.285286
   2 H     1.0000    0     1.008    0.000000    1.911031    2.149866
   3 H     1.0000    0     1.008    0.000000   -1.637484   -1.907785
   4 H     1.0000    0     1.008    1.729324   -1.014119    2.022659
   5 H     1.0000    0     1.008   -1.729324   -1.014119    2.022659

--------------------------------
INTERNAL COORDINATES (ANGSTROEM)
--------------------------------
 C      0   0   0     0.000000000000     0.00000000     0.00000000
 O      1   0   0     1.398287310047     0.00000000     0.00000000
 H      1   2   0     1.109419786142   108.90495564     0.00000000
 H      2   1   3     0.992341895636   105.93193855   180.00000000
 H      1   2   3     1.111615034344   110.29440031   241.36853018
 H      1   2   3     1.111615034344   110.29440031   118.63146982

---------------------------
INTERNAL COORDINATES (A.U.)
---------------------------
 C      0   0   0     0.000000000000     0.00000000     0.00000000
 O      1   0   0     2.642380072526     0.00000000     0.00000000
 H      1   2   0     2.096499563361   108.90495564     0.00000000
 H      2   1   3     1.875254413969   105.93193855   180.00000000
 H      1   2   3     2.100647981260   110.29440031   241.36853018
 H      1   2   3     2.100647981260   110.29440031   118.63146982

---------------------
BASIS SET INFORMATION
---------------------
There are 3 groups of distinct atoms

 Group   1 Type C   : 17s4p1d contracted to 3s2p1d pattern {881/31/1}
 Group   2 Type O   : 17s4p1d contracted to 3s2p1d pattern {881/31/1}
 Group   3 Type H   : 4s1p contracted to 2s1p pattern {31/1}

Atom   0C    basis set group =>   1
Atom   1O    basis set group =>   2
Atom   2H    basis set group =>   3
Atom   3H    basis set group =>   3
Atom   4H    basis set group =>   3
Atom   5H    basis set group =>   3

-------------------------
BASIS SET IN INPUT FORMAT
-------------------------

 # Basis set for element : H 
 NewGTO H 
 S 3 
   1      13.0100000000      0.0334987264
   2       1.9620000000      0.2348008012
   3       0.4446000000      0.8136829579
 S 1 
   1       0.1220000000      1.0000000000
 P 1 
   1       0.7270000000      1.0000000000
  end;

 # Basis set for element : C 
 NewGTO C 
 S 8 
   1    6665.0000000000      0.0006915840
   2    1000.0000000000      0.0053257962
   3     228.0000000000      0.0270607210
   4      64.7100000000      0.1016568461
   5      21.0600000000      0.2745748236
   6       7.4950000000      0.4482943189
   7       2.7970000000      0.2849026107
   8       0.5215000000      0.0151948592
 S 8 
   1    6665.0000000000     -0.0002932697
   2    1000.0000000000     -0.0023180355
   3     228.0000000000     -0.0114997860
   4      64.7100000000     -0.0468267270
   5      21.0600000000     -0.1284661688
   6       7.4950000000     -0.3012662725
   7       2.7970000000     -0.2556307023
   8       0.5215000000      1.0937933610
 S 1 
   1       0.1596000000      1.0000000000
 P 3 
   1       9.4390000000      0.0569792516
   2       2.0020000000      0.3132072115
   3       0.5456000000      0.7603767417
 P 1 
   1       0.1517000000      1.0000000000
 D 1 
   1       0.5500000000      1.0000000000
  end;

 # Basis set for element : O 
 NewGTO O 
 S 8 
   1   11720.0000000000      0.0007096459
   2    1759.0000000000      0.0054672723
   3     400.8000000000      0.0278231186
   4     113.7000000000      0.1047477397
   5      37.0300000000      0.2829208464
   6      13.2700000000      0.4484952387
   7       5.0250000000      0.2708168852
   8       1.0130000000      0.0154502916
 S 8 
   1   11720.0000000000     -0.0003144434
   2    1759.0000000000     -0.0024821377
   3     400.8000000000     -0.0123163554
   4     113.7000000000     -0.0505389173
   5      37.0300000000     -0.1393849033
   6      13.2700000000     -0.3250774948
   7       5.0250000000     -0.2298483076
   8       1.0130000000      1.0953793468
 S 1 
   1       0.3023000000      1.0000000000
 P 3 
   1      17.7000000000      0.0626791663
   2       3.8540000000      0.3335365659
   3       1.0460000000      0.7412396416
 P 1 
   1       0.2753000000      1.0000000000
 D 1 
   1       1.1850000000      1.0000000000
  end;

---------------------------------
AUXILIARY/J BASIS SET INFORMATION
---------------------------------
There are 3 groups of distinct atoms

 Group   1 Type C   : 12s5p4d2f1g contracted to 6s4p3d1f1g pattern {711111/2111/211/2/1}
 Group   2 Type O   : 12s5p4d2f1g contracted to 6s4p3d1f1g pattern {711111/2111/211/2/1}
 Group   3 Type H   : 5s2p1d contracted to 3s1p1d pattern {311/2/1}

Atom   0C    basis set group =>   1
Atom   1O    basis set group =>   2
Atom   2H    basis set group =>   3
Atom   3H    basis set group =>   3
Atom   4H    basis set group =>   3
Atom   5H    basis set group =>   3

-------------------------------------
AUXILIARY/J BASIS SET IN INPUT FORMAT
-------------------------------------

 # Auxiliary/J basis set for element : H 
 NewAuxJGTO H 
 S 3 
   1      15.6752927000      0.1007184237
   2       3.6063578000      0.3404257499
   3       1.2080016000      0.6491996172
 S 1 
   1       0.4726794000      1.0000000000
 S 1 
   1       0.2018100000      1.0000000000
 P 2 
   1       2.0281365000      0.5596620919
   2       0.5358730000      0.5596620919
 D 1 
   1       2.2165124000      1.0000000000
  end;

 # Auxiliary/J basis set for element : C 
 NewAuxJGTO C 
 S 7 
   1    1861.0916331000      0.0134602335
   2     642.9939764000      0.0299160374
   3     235.1105725000      0.1008649584
   4      90.7028894000      0.2370970548
   5      36.7794552000      0.3924037254
   6      15.6046273000      0.3195862154
   7       6.8907294000      0.0530104441
 S 1 
   1       3.1478850000     -1.0000000000
 S 1 
   1       1.4777287000      1.0000000000
 S 1 
   1       0.7076466000      1.0000000000
 S 1 
   1       0.3430122000      1.0000000000
 S 1 
   1       0.1669453000      1.0000000000
 P 2 
   1      13.5472892000     -0.6769313712
   2       5.4669419000     -0.3779500978
 P 1 
   1       2.1751721000      1.0000000000
 P 1 
   1       0.8582194000      1.0000000000
 P 1 
   1       0.3376720000      1.0000000000
 D 2 
   1       5.9287253000     -0.3533329857
   2       1.9809209000     -0.7456525731
 D 1 
   1       0.8055417000     -1.0000000000
 D 1 
   1       0.3531244000     -1.0000000000
 F 2 
   1       1.6755626000      0.6311076882
   2       0.5997536000      0.4968166032
 G 1 
   1       1.0024600000     -1.0000000000
  end;

 # Auxiliary/J basis set for element : O 
 NewAuxJGTO O 
 S 7 
   1    2876.8216605000      0.0168151159
   2    1004.7443032000      0.0340137548
   3     369.7579954000      0.1194951309
   4     142.9442404000      0.2664627624
   5      57.8366425000      0.4202764046
   6      24.3864983000      0.2765077335
   7      10.6622662000      0.0057008815
 S 1 
   1       4.8070437000     -1.0000000000
 S 1 
   1       2.2210770000      1.0000000000
 S 1 
   1       1.0447795000      1.0000000000
 S 1 
   1       0.4968425000      1.0000000000
 S 1 
   1       0.2371384000      1.0000000000
 P 2 
   1      64.2613382000     -0.2731534179
   2      16.3006076000     -0.8168011598
 P 1 
   1       4.3550542000      1.0000000000
 P 1 
   1       1.2019554000      1.0000000000
 P 1 
   1       0.3354196000      1.0000000000
 D 2 
   1       9.2146611000     -0.4661230638
   2       2.8435251000     -0.6600908911
 D 1 
   1       0.9955759000     -1.0000000000
 D 1 
   1       0.3649441000     -1.0000000000
 F 2 
   1       2.6420115000      0.5931563945
   2       0.7345613000      0.5931563945
 G 1 
   1       1.3931000000     -1.0000000000
  end;


Checking for AutoStart:
The File: MeOH_n.gbw exists
Trying to determine its content:
     ... Fine, the file contains calculation information
     ... Fine, the calculation information was read
     ... Fine, the file contains a basis set
     ... Fine, the basis set was read
     ... Fine, the file contains a geometry
     ... Fine, the geometry was read
     ... The file does not contain orbitals - skipping AutoStart


           ************************************************************
           *        Program running with 4 parallel MPI-processes     *
           *              working on a common directory               *
           ************************************************************
------------------------------------------------------------------------------
                             ORCA STARTUP CALCULATIONS
                           -- RI-GTO INTEGRALS CHOSEN --
------------------------------------------------------------------------------
------------------------------------------------------------------------------
                   ___                                                        
                  /   \      - P O W E R E D   B Y -                         
                 /     \                                                     
                 |  |  |   _    _      __       _____    __    __             
                 |  |  |  | |  | |    /  \     |  _  \  |  |  /  |          
                  \  \/   | |  | |   /    \    | | | |  |  | /  /          
                 / \  \   | |__| |  /  /\  \   | |_| |  |  |/  /          
                |  |  |   |  __  | /  /__\  \  |    /   |      \           
                |  |  |   | |  | | |   __   |  |    \   |  |\   \          
                \     /   | |  | | |  |  |  |  | |\  \  |  | \   \       
                 \___/    |_|  |_| |__|  |__|  |_| \__\ |__|  \__/        
                                                                              
                      - O R C A' S   B I G   F R I E N D -                    
                                      &                                       
                       - I N T E G R A L  F E E D E R -                       
                                                                              
 v1 FN, 2020, v2 2021, v3 2022-2024                                           
------------------------------------------------------------------------------


----------------------
SHARK INTEGRAL PACKAGE
----------------------

Number of atoms                             ...      6
Number of basis functions                   ...     60
Number of shells                            ...     36
Maximum angular momentum                    ...      2
Integral batch strategy                     ... SHARK/LIBINT Hybrid
RI-J (if used) integral strategy            ... SPLIT-RIJ (Revised 2003 algorithm where possible)
Printlevel                                  ...      1
Contraction scheme used                     ... PARTIAL GENERAL contraction
Prescreening option                         ... SCHWARTZ
   Thresh                                   ... 2.500e-11
   Tcut                                     ... 2.500e-12
   Tpresel                                  ... 2.500e-12 
Coulomb Range Separation                    ... NOT USED
Exchange Range Separation                   ... Long Range
   Mu parameter                             ... 2.500e-01
   Scaling (regular/separated)              ... 1.957e-01 8.043e-01
Robust (split-)RI terms used:
  metric    (central integrals)             ... YES
  density   (r.h.s.  integrals)             ... YES
  potential (l.h.s.  integrals)             ... YES
Multipole approximations                    ... NOT USED
Finite Nucleus Model                        ... NOT USED
CABS basis                                  ... NOT available
Auxiliary Coulomb fitting basis             ... AVAILABLE
   # of basis functions in Aux-J            ...    142
   # of shells in Aux-J                     ...     50
   Maximum angular momentum in Aux-J        ...      4
Auxiliary J/K fitting basis                 ... NOT available
Auxiliary Correlation fitting basis         ... NOT available
Auxiliary 'external' fitting basis          ... NOT available

Checking pre-screening integrals            ... done (  0.0 sec) Dimension = 36
Save PGC pre-screening integrals            ... done (  0.0 sec) Dimension = 36
Calculate PGC overlap integrals             ... done (  0.0 sec) Dimension = 24
Calculating pre-screening integrals (ORCA)  ... done (  0.0 sec) Dimension = 24
Shell pair information
Shell pair cut-off parameter TPreSel        ...   2.5e-12
Total number of shell pairs                 ...       666
Shell pairs after pre-screening             ...       625
Total number of primitive shell pairs       ...      1194
Primitive shell pairs kept                  ...      1072
          la=0 lb=0:    310 shell pairs
          la=1 lb=0:    208 shell pairs
          la=1 lb=1:     36 shell pairs
          la=2 lb=0:     52 shell pairs
          la=2 lb=1:     16 shell pairs
          la=2 lb=2:      3 shell pairs

Checking whether 4 symmetric matrices of dimension 60 fit in memory
:Max Core in MB      =   2000.00
 MB in use           =      3.88
 MB left             =   1996.12
 MB needed           =      0.06
 Data fit in memory  = YES
Calculating RI/J V-Matrix + Cholesky decomp.... done (  0.0 sec)
Calculating Nuclear repulsion               ... done (  0.0 sec) ENN=     40.345600411270 Eh

Diagonalization of the overlap matrix:
Smallest eigenvalue                        ... 1.646e-02
Time for diagonalization                   ...    0.000 sec
Threshold for overlap eigenvalues          ... 1.000e-07
Number of eigenvalues below threshold      ... 0
Time for construction of square roots      ...    0.000 sec
Total time needed                          ...    0.000 sec

-------------------
DFT GRID GENERATION
-------------------

General Integration Accuracy     IntAcc      ... 4.388
Radial Grid Type                 RadialGrid  ... OptM3 with GC (2021)
Angular Grid (max. ang.)         AngularGrid ... 4 (Lebedev-302)
Angular grid pruning method      GridPruning ... 4 (adaptive)
Weight generation scheme         WeightScheme... mBecke (2022)
Basis function cutoff            BFCut       ... 1.0000e-11
Integration weight cutoff        WCut        ... 1.0000e-14
Partially contracted basis set               ... off
Rotationally invariant grid construction     ... off
Angular grids for H and He will be reduced by one unit

Total number of grid points                  ...    25323
Total number of batches                      ...      399
Average number of points per batch           ...       63
Average number of grid points per atom       ...     4220

---------------------
SHARK GRID GENERATION
---------------------

General Integration Accuracy     IntAcc      ... 4.388
Radial Grid Type                 RadialGrid  ... OptM3 with GC (2021)
Angular Grid (max. ang.)         AngularGrid ... 4 (Lebedev-302)
Angular grid pruning method      GridPruning ... 4 (adaptive)
Weight generation scheme         WeightScheme... mBecke (2022)
Basis function cutoff            BFCut       ... 1.0000e-11
Integration weight cutoff        WCut        ... 1.0000e-14
Partially contracted basis set               ... off
Rotationally invariant grid construction     ... off
Angular grids for H and He will be reduced by one unit
Steep s-basis detected: some atoms will have their radial
                        grid points doubled.

Total number of grid points                  ...    37729
Total number of batches                      ...      593
Average number of points per batch           ...       63
Average number of grid points per atom       ...     6288

--------------------
COSX GRID GENERATION
--------------------

GRIDX 1
-------
General Integration Accuracy     IntAcc      ... 3.816
Radial Grid Type                 RadialGrid  ... OptM3 with GC (2021)
Angular Grid (max. ang.)         AngularGrid ... 1 (Lebedev-50)
Angular grid pruning method      GridPruning ... 4 (adaptive)
Weight generation scheme         WeightScheme... mBecke (2022)
Basis function cutoff            BFCut       ... 1.0000e-11
Integration weight cutoff        WCut        ... 1.0000e-14
Partially contracted basis set               ... on
Rotationally invariant grid construction     ... off
Angular grids for H and He will be reduced by one unit

Total number of grid points                  ...     3288
Total number of batches                      ...       29
Average number of points per batch           ...      113
Average number of grid points per atom       ...      548
UseSFitting                                  ... on

GRIDX 2
-------
General Integration Accuracy     IntAcc      ... 4.020
Radial Grid Type                 RadialGrid  ... OptM3 with GC (2021)
Angular Grid (max. ang.)         AngularGrid ... 2 (Lebedev-110)
Angular grid pruning method      GridPruning ... 4 (adaptive)
Weight generation scheme         WeightScheme... mBecke (2022)
Basis function cutoff            BFCut       ... 1.0000e-11
Integration weight cutoff        WCut        ... 1.0000e-14
Partially contracted basis set               ... on
Rotationally invariant grid construction     ... off
Angular grids for H and He will be reduced by one unit

Total number of grid points                  ...     6930
Total number of batches                      ...       57
Average number of points per batch           ...      121
Average number of grid points per atom       ...     1155
UseSFitting                                  ... on

GRIDX 3
-------
General Integration Accuracy     IntAcc      ... 4.338
Radial Grid Type                 RadialGrid  ... OptM3 with GC (2021)
Angular Grid (max. ang.)         AngularGrid ... 3 (Lebedev-194)
Angular grid pruning method      GridPruning ... 4 (adaptive)
Weight generation scheme         WeightScheme... mBecke (2022)
Basis function cutoff            BFCut       ... 1.0000e-11
Integration weight cutoff        WCut        ... 1.0000e-14
Partially contracted basis set               ... on
Rotationally invariant grid construction     ... off
Angular grids for H and He will be reduced by one unit

Total number of grid points                  ...    15217
Total number of batches                      ...      121
Average number of points per batch           ...      125
Average number of grid points per atom       ...     2536
UseSFitting                                  ... on
Grids setup in   0.3 sec
Initializing property integral containers    ... done (  0.0 sec)

SHARK setup successfully completed in   0.3 seconds

Maximum memory used throughout the entire STARTUP-calculation: 13.9 MB


           ************************************************************
           *        Program running with 4 parallel MPI-processes     *
           *              working on a common directory               *
           ************************************************************
-------------------------------------------------------------------------------
                                 ORCA GUESS
                   Start orbitals & Density for SCF / CASSCF
-------------------------------------------------------------------------------

------------
SCF SETTINGS
------------
Hamiltonian:
 Density Functional     Method          .... DFT(GTOs)
 Exchange Functional    Exchange        .... WB97X-D3
 Correlation Functional Correlation     .... WB97X-D3
 Gradients option       PostSCFGGA      .... off
 Hybrid DFT is turned on
   Fraction HF Exchange ScalHFX         ....  0.195728
   Scaling of DF-GGA-X  ScalDFX         ....  0.000000
   Scaling of DF-GGA-C  ScalDFC         ....  1.000000
   Scaling of DF-LDA-C  ScalLDAC        ....  1.000000
   Perturbative correction              ....  0.000000
 Long-range corrected/Screened/Range-Separated Hybrid DFT is turned on
   Amount of maximum screened exact exchange              ....  0.804272
   Range separation parameter mu (erf(mu*r12)/r12)        ....  0.250000
 RI-approximation to the Coulomb term is turned on
   Number of AuxJ basis functions       .... 142
   RIJ-COSX (HFX calculated with COS-X)).... on


General Settings:
 Integral files         IntName         .... MeOH_n
 Hartree-Fock type      HFTyp           .... UHF
 Total Charge           Charge          ....    0
 Multiplicity           Mult            ....    1
 Number of Electrons    NEL             ....   18
 Basis Dimension        Dim             ....   48
 Nuclear Repulsion      ENuc            ....     40.3456004113 Eh

Convergence Acceleration:
 AO-DIIS                CNVDIIS         .... on
   Start iteration      DIISMaxIt       ....    12
   Startup error        DIISStart       ....  0.200000
   # of expansion vecs  DIISMaxEq       ....     5
   Bias factor          DIISBfac        ....   1.050
   Max. coefficient     DIISMaxC        ....  10.000
 MO-DIIS                CNVKDIIS        .... off
 Trust-Rad. Augm. Hess. CNVTRAH         .... auto
   Auto Start mean grad. ratio tolernc. ....  1.125000
   Auto Start start iteration           ....    50
   Auto Start num. interpolation iter.  ....    10
   Max. Number of Micro iterations      ....    24
   Max. Number of Macro iterations      .... Maxiter - #DIIS iter
   Number of Davidson start vectors     ....     2
   Converg. threshold    (grad. norm)   ....   1.000e-05
   Grad. Scal. Fac. for Micro threshold ....   0.100
   Minimum threshold for Micro iter.    ....   1.000e-02
   NR start threshold (gradient norm)   ....   1.000e-04
   Initial trust radius                 ....   0.400
   Minimum AH scaling param. (alpha)    ....   1.000
   Maximum AH scaling param. (alpha)    .... 1000.000
   Quad. conv. algorithm                .... NR
   White noise on init. David. guess    .... on
   Maximum white noise                  ....   0.010
   Pseudo random numbers                .... off
   Inactive MOs                         .... canonical
   Orbital update algorithm             .... Taylor
   Preconditioner                       .... Diag
   Full preconditioner red. dimension   ....   250
 SOSCF                 CNVSOSCF           .... on
   Start iteration     SOSCFMaxIt         ....   150
   Startup grad/error  SOSCFStart         ....  0.003300
   Hessian update      SOSCFHessUp        .... L-BFGS
   Autom. constraints  SOSCFAutoConstrain .... off
 Level Shifting         CNVShift        .... on
   Level shift para.    LevelShift      ....    0.2500
   Turn off err/grad.   ShiftErr        ....    0.0010
 Zerner damping         CNVZerner       .... off
 Static damping         CNVDamp         .... on
   Fraction old density DampFac         ....    0.7000
   Max. Damping (<1)    DampMax         ....    0.9800
   Min. Damping (>=0)   DampMin         ....    0.0000
   Turn off err/grad.   DampErr         ....    0.1000

SCF Procedure:
 Maximum # iterations   MaxIter         ....  2000
 SCF integral mode      SCFMode         .... Direct
   Integral package                     .... SHARK and LIBINT hybrid scheme
 Reset frequency        DirectResetFreq ....    20
 Integral Threshold     Thresh          ....  2.500e-11 Eh
 Primitive CutOff       TCut            ....  2.500e-12 Eh

Convergence Tolerance:
 Convergence Check Mode ConvCheckMode   .... Total+1el-Energy
 Convergence forced     ConvForced      .... 0
 Energy Change          TolE            ....  1.000e-08 Eh
 1-El. energy change                    ....  1.000e-05 Eh
 Orbital Gradient       TolG            ....  1.000e-05
 Orbital Rotation angle TolX            ....  1.000e-05
 DIIS Error             TolErr          ....  5.000e-07

------------------------------
INITIAL GUESS: MODEL POTENTIAL
------------------------------
Loading Hartree-Fock densities                     ... done
Calculating cut-offs                               ... done
Initializing the effective Hamiltonian             ... done
Setting up the integral package (SHARK)            ... done
Starting the Coulomb interaction                   ... done (   0.0 sec)
Making the grid                                    ... done (   0.0 sec)
Mapping shells                                     ... done
Starting the XC term evaluation                    ... done (   0.0 sec)
  promolecular density results
     # of electrons  =     17.997837747
     EX              =    -14.419670960
     EC              =     -0.574463146
     EX+EC           =    -14.994134106
Transforming the Hamiltonian                       ... done (   0.0 sec)
Diagonalizing the Hamiltonian                      ... done (   0.0 sec)
Back transforming the eigenvectors                 ... done (   0.0 sec)
Now organizing SCF variables                       ... done
                      ------------------
                      INITIAL GUESS DONE (   0.0 sec)
                      ------------------
             **** ENERGY FILE WAS UPDATED (MeOH_n.en.tmp) ****
Finished Guess after   0.3 sec
Maximum memory used throughout the entire GUESS-calculation: 6.1 MB


           ************************************************************
           *        Program running with 4 parallel MPI-processes     *
           *              working on a common directory               *
           ************************************************************

-------------------------------------------------------------------------------------------
                                      ORCA LEAN-SCF
                              memory conserving SCF solver
-------------------------------------------------------------------------------------------

----------------------------------------D-I-I-S--------------------------------------------
Iteration    Energy (Eh)           Delta-E    RMSDP     MaxDP     DIISErr   Damp  Time(sec)
-------------------------------------------------------------------------------------------
               ***  Starting incremental Fock matrix formation  ***
    1    -115.6088793282818870     0.00e+00  4.77e-03  3.10e-02  1.20e-01  0.700   0.1
    2    -115.6426791832207641    -3.38e-02  3.23e-03  1.99e-02  6.39e-02  0.700   0.1
                               ***Turning on AO-DIIS***
    3    -115.6585483168680071    -1.59e-02  1.34e-03  5.96e-03  2.82e-02  0.700   0.1
    4    -115.6680016468189649    -9.45e-03  2.75e-03  1.11e-02  1.83e-02  0.000   0.1
                              *** Initializing SOSCF ***
---------------------------------------S-O-S-C-F--------------------------------------
Iteration    Energy (Eh)           Delta-E    RMSDP     MaxDP     MaxGrad    Time(sec)
--------------------------------------------------------------------------------------
    5    -115.6884900719969380    -2.05e-02  2.68e-04  1.56e-03  2.21e-03     0.1
               *** Restarting incremental Fock matrix formation ***
    6    -115.6884988525647202    -8.78e-06  1.60e-04  6.94e-04  4.94e-04     0.1
    7    -115.6885015690660339    -2.72e-06  6.86e-05  2.91e-04  3.78e-04     0.1
    8    -115.6885031318988410    -1.56e-06  8.09e-06  4.80e-05  3.90e-05     0.1
    9    -115.6885031450007375    -1.31e-08  3.41e-06  2.05e-05  2.67e-05     0.1
   10    -115.6885031518997948    -6.90e-09  6.30e-07  2.95e-06  2.83e-06     0.1
                 **** Energy Check signals convergence ****

               *****************************************************
               *                     SUCCESS                       *
               *           SCF CONVERGED AFTER  10 CYCLES          *
               *****************************************************

Recomputing exchange energy using gridx3       ... done (    0.159 sec)
Old exchange energy                            :     -4.839591778 Eh
New exchange energy                            :     -4.839596513 Eh
Exchange energy change after final integration :     -0.000004736 Eh
Total energy after final integration           :   -115.688507887 Eh
             **** ENERGY FILE WAS UPDATED (MeOH_n.en.tmp) ****

----------------
TOTAL SCF ENERGY
----------------

Total Energy       :       -115.68850788725436 Eh           -3148.04434 eV

Components:
Nuclear Repulsion  :         40.34560041127031 Eh            1097.85960 eV
Electronic Energy  :       -156.03410356301691 Eh           -4245.90382 eV
One Electron Energy:       -237.15345607182337 Eh           -6453.27362 eV
Two Electron Energy:         81.11935250880644 Eh            2207.36980 eV

Virial components:
Potential Energy   :       -230.59166563002691 Eh           -6274.71822 eV
Kinetic Energy     :        114.90315774277255 Eh            3126.67388 eV
Virial Ratio       :          2.00683488739483

DFT components:
N(Alpha)           :        9.000005343526 electrons
N(Beta)            :        9.000005343526 electrons
N(Total)           :       18.000010687051 electrons
E(XC)              :      -10.640384889292 Eh       

---------------
SCF CONVERGENCE
---------------

  Last Energy change         ...    6.8991e-09  Tolerance :   1.0000e-08
  Last MAX-Density change    ...    2.9545e-06  Tolerance :   1.0000e-07
  Last RMS-Density change    ...    6.3034e-07  Tolerance :   5.0000e-09
  Last DIIS Error            ...    2.2147e-03  Tolerance :   5.0000e-07
  Last Orbital Gradient      ...    2.8287e-06  Tolerance :   1.0000e-05
  Last Orbital Rotation      ...    5.3445e-06  Tolerance :   1.0000e-05


----------------------
UHF SPIN CONTAMINATION
----------------------

Warning: in a DFT calculation there is little theoretical justification to 
         calculate <S**2> as in Hartree-Fock theory. We will do it anyways
         but you should keep in mind that the values have only limited relevance

Expectation value of <S**2>     :    -0.000000
Ideal value S*(S+1) for S=0.0   :     0.000000
Deviation                       :    -0.000000

----------------
ORBITAL ENERGIES
----------------
                 SPIN UP ORBITALS
  NO   OCC          E(Eh)            E(eV) 
   0   1.0000     -19.235026      -523.4117 
   1   1.0000     -10.327747      -281.0323 
   2   1.0000      -1.127489       -30.6805 
   3   1.0000      -0.780022       -21.2255 
   4   1.0000      -0.596932       -16.2433 
   5   1.0000      -0.536225       -14.5914 
   6   1.0000      -0.517118       -14.0715 
   7   1.0000      -0.419648       -11.4192 
   8   1.0000      -0.356866        -9.7108 
   9   0.0000       0.144950         3.9443 
  10   0.0000       0.186806         5.0833 
  11   0.0000       0.226866         6.1733 
  12   0.0000       0.228194         6.2095 
  13   0.0000       0.293250         7.9797 
  14   0.0000       0.546679        14.8759 
  15   0.0000       0.563894        15.3443 
  16   0.0000       0.598596        16.2886 
  17   0.0000       0.662370        18.0240 
  18   0.0000       0.730084        19.8666 
  19   0.0000       0.747510        20.3408 

                 SPIN DOWN ORBITALS
  NO   OCC          E(Eh)            E(eV) 
   0   1.0000     -19.235026      -523.4117 
   1   1.0000     -10.327747      -281.0323 
   2   1.0000      -1.127489       -30.6805 
   3   1.0000      -0.780022       -21.2255 
   4   1.0000      -0.596932       -16.2433 
   5   1.0000      -0.536225       -14.5914 
   6   1.0000      -0.517118       -14.0715 
   7   1.0000      -0.419648       -11.4192 
   8   1.0000      -0.356866        -9.7108 
   9   0.0000       0.144950         3.9443 
  10   0.0000       0.186806         5.0833 
  11   0.0000       0.226866         6.1733 
  12   0.0000       0.228194         6.2095 
  13   0.0000       0.293250         7.9797 
  14   0.0000       0.546679        14.8759 
  15   0.0000       0.563894        15.3443 
  16   0.0000       0.598596        16.2886 
  17   0.0000       0.662370        18.0240 
  18   0.0000       0.730084        19.8666 
  19   0.0000       0.747510        20.3408 
*Only the first 10 virtual orbitals were printed.
------------------
MOLECULAR ORBITALS (UHF)
------------------
                      0         1         2         3         4         5   
                 -19.23503 -10.32775  -1.12749  -0.78002  -0.59693  -0.53622
                   1.00000   1.00000   1.00000   1.00000   1.00000   1.00000
                  --------  --------  --------  --------  --------  --------
  0C   1s        -0.000104  1.005598  0.011155 -0.013817  0.004392  0.000000
  0C   2s        -0.000148  0.014114 -0.150909  0.356976 -0.044995  0.000000
  0C   3s         0.005545 -0.012386 -0.057234  0.220639 -0.033204  0.000000
  0C   1pz       -0.000513 -0.000086  0.119208  0.056953 -0.220383  0.000000
  0C   1px       -0.000000  0.000000  0.000000 -0.000000 -0.000000 -0.406521
  0C   1py        0.000007 -0.000013  0.000754  0.018053  0.214762  0.000000
  0C   2pz       -0.002433 -0.000821  0.021210  0.029655 -0.082969  0.000000
  0C   2px        0.000000 -0.000000 -0.000000 -0.000000 -0.000000 -0.162444
  0C   2py        0.000232  0.000191  0.006445 -0.001829  0.100776  0.000000
  0C   1dz2      -0.000227 -0.000267 -0.029889 -0.001075  0.023634 -0.000000
  0C   1dxz       0.000000 -0.000000  0.000000  0.000000 -0.000000  0.009552
  0C   1dyz       0.000148  0.000113 -0.003113 -0.004633 -0.021210  0.000000
  0C   1dx2y2     0.000019  0.000068  0.000661 -0.001648 -0.004450  0.000000
  0C   1dxy       0.000000  0.000000  0.000000  0.000000 -0.000000  0.013255
  1O   1s         1.003412  0.000342  0.008959 -0.002503  0.000962 -0.000000
  1O   2s         0.007754  0.000612 -0.417182 -0.146982  0.087851 -0.000000
  1O   3s        -0.010874 -0.001316 -0.389247 -0.142389  0.147770  0.000000
  1O   1pz        0.000997 -0.000079 -0.075259  0.178281  0.238834 -0.000000
  1O   1px       -0.000000  0.000000  0.000000  0.000000  0.000000 -0.273832
  1O   1py       -0.001382  0.000038  0.079856  0.093481  0.339935  0.000000
  1O   2pz       -0.002893 -0.001337 -0.034049  0.094444  0.095213 -0.000000
  1O   2px       -0.000000  0.000000 -0.000000  0.000000  0.000000 -0.178866
  1O   2py        0.000781  0.000722  0.003723  0.017798  0.159688 -0.000000
  1O   1dz2      -0.000220 -0.000755 -0.007407  0.011331  0.012693 -0.000000
  1O   1dxz       0.000000  0.000000  0.000000  0.000000 -0.000000 -0.013537
  1O   1dyz       0.000201  0.000098  0.000693 -0.004635  0.002775  0.000000
  1O   1dx2y2    -0.000139  0.000194  0.004940  0.003815  0.009915 -0.000000
  1O   1dxy      -0.000000  0.000000 -0.000000 -0.000000  0.000000  0.007687
  2H   1s        -0.000701 -0.001229 -0.035913  0.188757  0.043434  0.000000
  2H   2s        -0.000411  0.002118 -0.005800  0.033362  0.004900  0.000000
  2H   1pz        0.000271  0.000650  0.005264 -0.005838 -0.005063 -0.000000
  2H   1px       -0.000000 -0.000000 -0.000000 -0.000000  0.000000 -0.013477
  2H   1py        0.000130  0.001451  0.005645 -0.021517 -0.000186 -0.000000
  3H   1s         0.000174  0.000674 -0.167778 -0.166408 -0.291041  0.000000
  3H   2s         0.000201  0.000423 -0.009314 -0.027706 -0.081366  0.000000
  3H   1pz       -0.000114  0.000606 -0.014817 -0.004416 -0.010535 -0.000000
  3H   1px        0.000000  0.000000  0.000000 -0.000000 -0.000000 -0.013778
  3H   1py       -0.000947  0.000137 -0.030496 -0.022942 -0.025252  0.000000
  4H   1s        -0.000622 -0.001167 -0.038337  0.173652 -0.151999 -0.259613
  4H   2s        -0.000262  0.002312 -0.003310  0.027316 -0.040250 -0.099147
  4H   1pz        0.000270  0.000546  0.004839 -0.004730 -0.000889  0.006217
  4H   1px        0.000057  0.001238  0.006824 -0.017306  0.011985  0.006635
  4H   1py       -0.000076 -0.000764 -0.003916  0.010846 -0.000562 -0.010496
  5H   1s        -0.000622 -0.001167 -0.038337  0.173652 -0.151999  0.259613
  5H   2s        -0.000262  0.002312 -0.003310  0.027316 -0.040250  0.099147
  5H   1pz        0.000270  0.000546  0.004839 -0.004730 -0.000889 -0.006217
  5H   1px       -0.000057 -0.001238 -0.006824  0.017306 -0.011985  0.006635
  5H   1py       -0.000076 -0.000764 -0.003916  0.010846 -0.000562  0.010496
                      6         7         8         9        10        11   
                  -0.51712  -0.41965  -0.35687   0.14495   0.18681   0.22687
                   1.00000   1.00000   1.00000   0.00000   0.00000   0.00000
                  --------  --------  --------  --------  --------  --------
  0C   1s         0.003213 -0.004291  0.000000 -0.040795 -0.040595  0.000000
  0C   2s         0.013040 -0.030829  0.000000  0.052401  0.164826 -0.000000
  0C   3s         0.005766  0.014119 -0.000000  1.192529  1.684313 -0.000001
  0C   1pz       -0.290289  0.117071  0.000000  0.172007  0.042831  0.000000
  0C   1px       -0.000000  0.000000 -0.191207 -0.000000  0.000000  0.403555
  0C   1py       -0.282234 -0.282464 -0.000000 -0.069518  0.063916  0.000002
  0C   2pz       -0.106132  0.007744 -0.000000  0.319823  0.227054  0.000001
  0C   2px       -0.000000 -0.000000 -0.035833 -0.000000  0.000000  1.268886
  0C   2py       -0.141573 -0.079736 -0.000000 -0.170695  0.218013  0.000005
  0C   1dz2       0.025833 -0.009108 -0.000000  0.018165 -0.014602  0.000000
  0C   1dxz       0.000000 -0.000000 -0.039771 -0.000000 -0.000000  0.000002
  0C   1dyz       0.001123 -0.030937 -0.000000  0.007520 -0.006384 -0.000000
  0C   1dx2y2     0.007612  0.011974 -0.000000  0.004433 -0.004566  0.000000
  0C   1dxy       0.000000 -0.000000  0.010759  0.000000  0.000000  0.005051
  1O   1s         0.003503 -0.003457  0.000000 -0.014917  0.016945 -0.000000
  1O   2s        -0.065776  0.119136  0.000000  0.107477 -0.078700  0.000000
  1O   3s        -0.132874  0.248911  0.000000  0.581248 -0.535325  0.000001
  1O   1pz        0.362206 -0.206145 -0.000000 -0.043888 -0.043992  0.000000
  1O   1px       -0.000000 -0.000000  0.578206  0.000000  0.000000 -0.068201
  1O   1py       -0.114245  0.389513  0.000000 -0.197773  0.160250 -0.000000
  1O   2pz        0.207081 -0.172085 -0.000000 -0.136077 -0.039084  0.000000
  1O   2px       -0.000000 -0.000000  0.447800  0.000000 -0.000000 -0.179099
  1O   2py       -0.088240  0.250982 -0.000000 -0.269441  0.222553 -0.000001
  1O   1dz2       0.008087  0.000101 -0.000000 -0.001195  0.008301 -0.000000
  1O   1dxz       0.000000 -0.000000  0.005633 -0.000000  0.000000  0.009951
  1O   1dyz      -0.018620  0.003872  0.000000 -0.003923  0.005535  0.000000
  1O   1dx2y2    -0.000950  0.011686  0.000000 -0.005265  0.003857 -0.000000
  1O   1dxy       0.000000  0.000000 -0.012901 -0.000000  0.000000  0.005791
  2H   1s        -0.297221 -0.250380 -0.000000 -0.017694 -0.056034 -0.000000
  2H   2s        -0.101328 -0.128822  0.000000 -0.304782 -1.126796 -0.000007
  2H   1pz        0.001098  0.009037  0.000000  0.011383 -0.007192  0.000000
  2H   1px       -0.000000  0.000000 -0.008658  0.000000 -0.000000  0.009429
  2H   1py        0.015369  0.004777 -0.000000 -0.004297  0.003963 -0.000000
  3H   1s        -0.064715 -0.216675 -0.000000 -0.125927  0.110921  0.000000
  3H   2s        -0.053201 -0.060610 -0.000000 -0.925669  0.822260 -0.000001
  3H   1pz        0.018059 -0.017129 -0.000000  0.002837 -0.012755 -0.000000
  3H   1px       -0.000000 -0.000000  0.029784  0.000000  0.000000 -0.014535
  3H   1py       -0.012190 -0.006631  0.000000  0.002950  0.003525 -0.000000
  4H   1s         0.034643  0.159167 -0.209937 -0.038381 -0.024136 -0.063396
  4H   2s         0.006393  0.100051 -0.135309 -0.639779 -0.702134 -1.668583
  4H   1pz       -0.007434  0.000849  0.001709  0.010491 -0.007153  0.003276
  4H   1px       -0.002546 -0.010192  0.002645 -0.001542  0.000454  0.003438
  4H   1py       -0.006695 -0.006162 -0.005725  0.003213 -0.003288  0.004700
  5H   1s         0.034643  0.159167  0.209937 -0.038381 -0.024136  0.063396
  5H   2s         0.006393  0.100051  0.135309 -0.639779 -0.702134  1.668591
  5H   1pz       -0.007434  0.000848 -0.001709  0.010491 -0.007153 -0.003276
  5H   1px        0.002546  0.010192  0.002645  0.001542 -0.000454  0.003438
  5H   1py       -0.006695 -0.006162  0.005725  0.003213 -0.003288 -0.004700
                     12        13        14        15        16        17   
                   0.22819   0.29325   0.54668   0.56389   0.59860   0.66237
                   0.00000   0.00000   0.00000   0.00000   0.00000   0.00000
                  --------  --------  --------  --------  --------  --------
  0C   1s         0.009288  0.019680  0.011200  0.000000 -0.155903  0.013929
  0C   2s        -0.018560 -0.074512  0.035241  0.000000 -0.428121  0.011446
  0C   3s        -0.237854 -0.717882 -0.013213 -0.000000  0.381988 -0.134019
  0C   1pz        0.064888  0.284968 -0.104330 -0.000000  0.874478  0.298606
  0C   1px       -0.000002 -0.000000 -0.000000  0.214310  0.000000 -0.000000
  0C   1py        0.375372 -0.048515  0.211641  0.000000  0.086910 -0.469751
  0C   2pz        0.268169  1.389706  0.046930  0.000000 -1.380230 -0.274331
  0C   2px       -0.000005 -0.000000  0.000000 -1.202548 -0.000000  0.000000
  0C   2py        1.225775 -0.272578 -1.005496 -0.000000 -0.409735  1.257188
  0C   1dz2       0.005651  0.031150 -0.021832 -0.000000  0.109663  0.123519
  0C   1dxz       0.000000  0.000000  0.000000  0.040300  0.000000  0.000000
  0C   1dyz      -0.006957 -0.006178  0.098119  0.000000 -0.018506  0.161557
  0C   1dx2y2     0.011960 -0.009287 -0.158996 -0.000000 -0.029714 -0.031386
  0C   1dxy      -0.000000 -0.000000  0.000000 -0.171132 -0.000000 -0.000000
  1O   1s        -0.009087 -0.025260  0.008444 -0.000000  0.061551  0.046557
  1O   2s         0.026630  0.067356  0.051580 -0.000000  0.148135  0.146810
  1O   3s         0.261073  0.734063  0.096081  0.000000 -0.647680 -0.372390
  1O   1pz        0.061108  0.353010 -0.127541 -0.000000  0.275227  0.117977
  1O   1px        0.000000  0.000000 -0.000000  0.187827  0.000000  0.000000
  1O   1py       -0.097151  0.115177  0.032785 -0.000000  0.048673 -0.289809
  1O   2pz        0.099390  0.739592 -0.011517  0.000000 -0.085184 -0.151773
  1O   2px        0.000001  0.000000 -0.000000  0.206154  0.000000 -0.000000
  1O   2py       -0.213656  0.211704  0.166851  0.000000  0.179687 -0.183977
  1O   1dz2      -0.000885  0.003463  0.017172  0.000000 -0.077470 -0.007917
  1O   1dxz      -0.000000 -0.000000 -0.000000 -0.009281 -0.000000 -0.000000
  1O   1dyz       0.010290 -0.003712 -0.022137 -0.000000  0.009326 -0.056280
  1O   1dx2y2    -0.000894 -0.002374  0.013674  0.000000 -0.013653  0.060814
  1O   1dxy      -0.000000 -0.000000  0.000000 -0.010214 -0.000000  0.000000
  2H   1s        -0.111473 -0.055568  0.783030  0.000000  0.215064  0.028458
  2H   2s        -1.807969  0.175053 -0.309246 -0.000000  0.229456 -0.870925
  2H   1pz        0.005572  0.013793  0.011049 -0.000000  0.005981  0.084516
  2H   1px       -0.000000 -0.000000  0.000000 -0.083171 -0.000000 -0.000000
  2H   1py       -0.002926 -0.009622  0.040660 -0.000000 -0.027961  0.057381
  3H   1s         0.002739  0.067081 -0.241559 -0.000000  0.408187 -0.948893
  3H   2s        -0.139338  0.831068 -0.018260  0.000000 -0.625342  0.882928
  3H   1pz       -0.008439  0.005218  0.070806 -0.000000  0.098411  0.080211
  3H   1px        0.000000  0.000000  0.000000  0.007590  0.000000  0.000000
  3H   1py       -0.004146 -0.008838  0.034510  0.000000 -0.049466  0.162250
  4H   1s         0.052956 -0.105511 -0.398177  0.699334  0.055205 -0.058561
  4H   2s         0.971719 -0.259115  0.156663 -0.099465  0.043277  0.507889
  4H   1pz        0.002546  0.017683 -0.017350  0.011178  0.040428 -0.036395
  4H   1px        0.003507 -0.012348 -0.039149 -0.003297 -0.017888 -0.066414
  4H   1py        0.008301 -0.000756 -0.048743 -0.049363 -0.001318  0.039499
  5H   1s         0.052956 -0.105511 -0.398177 -0.699334  0.055205 -0.058561
  5H   2s         0.971706 -0.259115  0.156663  0.099465  0.043277  0.507889
  5H   1pz        0.002546  0.017683 -0.017350 -0.011178  0.040428 -0.036395
  5H   1px       -0.003507  0.012348  0.039149 -0.003297  0.017888  0.066414
  5H   1py        0.008301 -0.000756 -0.048743  0.049363 -0.001318  0.039499
                     18        19        20        21        22        23   
                   0.73008   0.74751   0.75176   0.97088   0.99428   1.04700
                   0.00000   0.00000   0.00000   0.00000   0.00000   0.00000
                  --------  --------  --------  --------  --------  --------
  0C   1s         0.000000 -0.185473 -0.003402 -0.121543 -0.000000 -0.766644
  0C   2s         0.000000 -0.624635  0.027270 -0.255743 -0.000000 -1.573347
  0C   3s        -0.000000  0.755114  0.071180  0.997415  0.000000  4.389361
  0C   1pz       -0.000000 -0.200533 -0.081917 -0.187675 -0.000000 -0.249337
  0C   1px       -0.884499  0.000000  0.000000 -0.000000  0.033516 -0.000000
  0C   1py       -0.000000 -0.127104 -0.734737 -0.096575  0.000000  0.049882
  0C   2pz        0.000000  0.472223  0.074555  0.099565  0.000000  0.335889
  0C   2px        1.976298 -0.000000 -0.000000  0.000000 -0.064280  0.000000
  0C   2py        0.000000  0.310012  1.545496  0.116959 -0.000000 -0.104314
  0C   1dz2      -0.000000 -0.128381 -0.014391  0.063174  0.000000  0.043341
  0C   1dxz       0.193316 -0.000000 -0.000000  0.000000  0.277872 -0.000000
  0C   1dyz       0.000000  0.034596  0.107036 -0.243132  0.000000  0.225712
  0C   1dx2y2    -0.000000 -0.003078 -0.216820 -0.258334  0.000000  0.075463
  0C   1dxy      -0.207038  0.000000  0.000000 -0.000000  0.265019 -0.000000
  1O   1s        -0.000000  0.029905 -0.048607  0.009005 -0.000000 -0.081012
  1O   2s        -0.000000  0.132238 -0.151288 -0.062546 -0.000000 -0.275942
  1O   3s         0.000000  0.159575  0.192551 -0.534111 -0.000000 -0.378275
  1O   1pz       -0.000000  0.152092  0.001237  0.161140 -0.000000 -0.024077
  1O   1px        0.014252  0.000000  0.000000  0.000000  0.657509 -0.000000
  1O   1py        0.000000  0.045885  0.278735 -0.543210  0.000000 -0.067304
  1O   2pz        0.000000  0.144544 -0.009891 -0.238168 -0.000000 -0.520648
  1O   2px       -0.163327  0.000000  0.000000 -0.000000 -0.571312  0.000000
  1O   2py       -0.000000 -0.088211 -0.210993  0.834224 -0.000000  0.250147
  1O   1dz2      -0.000000  0.004429 -0.015210  0.009157 -0.000000 -0.044330
  1O   1dxz      -0.023737  0.000000  0.000000 -0.000000 -0.019383  0.000000
  1O   1dyz       0.000000 -0.005616  0.021697  0.013733 -0.000000 -0.034466
  1O   1dx2y2    -0.000000  0.002917 -0.049428 -0.001041 -0.000000 -0.001906
  1O   1dxy       0.005063 -0.000000 -0.000000 -0.000000  0.015534 -0.000000
  2H   1s         0.000000  0.680427  0.225223 -0.049077 -0.000000 -0.491883
  2H   2s        -0.000000 -0.876561 -1.535884 -0.385307 -0.000000 -0.755634
  2H   1pz        0.000000  0.060492  0.087871 -0.211039  0.000000  0.126868
  2H   1px       -0.036416  0.000000  0.000000  0.000000  0.199767 -0.000000
  2H   1py        0.000000  0.183385  0.165699  0.129955  0.000000  0.034693
  3H   1s         0.000000 -0.119874  0.604276  0.348052 -0.000000  0.091588
  3H   2s        -0.000000  0.340911 -0.580255  0.194221 -0.000000 -0.229044
  3H   1pz       -0.000000 -0.024840 -0.056325  0.014100  0.000000  0.263883
  3H   1px        0.013017 -0.000000 -0.000000  0.000000 -0.051630  0.000000
  3H   1py       -0.000000  0.005368 -0.166892  0.224644 -0.000000 -0.075345
  4H   1s         0.274649  0.641880 -0.245552 -0.027837  0.035701 -0.426851
  4H   2s        -1.622968 -0.544051  0.867220 -0.135674  0.091083 -0.796641
  4H   1pz        0.086931  0.005680 -0.033192  0.134053  0.234869  0.036896
  4H   1px        0.150786  0.131951 -0.103188 -0.101897 -0.022128  0.097062
  4H   1py       -0.105460 -0.074685  0.020097 -0.127104  0.122791  0.027193
  5H   1s        -0.274649  0.641880 -0.245552 -0.027837 -0.035701 -0.426851
  5H   2s         1.622968 -0.544051  0.867219 -0.135673 -0.091083 -0.796641
  5H   1pz       -0.086931  0.005680 -0.033192  0.134053 -0.234869  0.036896
  5H   1px        0.150786 -0.131951  0.103188  0.101897 -0.022128 -0.097062
  5H   1py        0.105460 -0.074685  0.020097 -0.127104 -0.122791  0.027193
                     24        25        26        27        28        29   
                   1.10735   1.16601   1.29364   1.43615   1.49949   1.49988
                   0.00000   0.00000   0.00000   0.00000   0.00000   0.00000
                  --------  --------  --------  --------  --------  --------
  0C   1s         0.174100 -0.000000  0.432808  0.000000 -0.000000  0.182242
  0C   2s         0.365153 -0.000000  0.887169  0.000000 -0.000000  0.380242
  0C   3s         0.337255  0.000000 -2.241811 -0.000000  0.000000 -0.436841
  0C   1pz       -0.229730 -0.000000 -0.136132 -0.000000  0.000000 -0.153643
  0C   1px       -0.000000  0.105479  0.000000  0.006069 -0.012522 -0.000000
  0C   1py        0.142853 -0.000000 -0.073774  0.000000 -0.000000  0.001069
  0C   2pz       -0.891983  0.000000  0.270133 -0.000000  0.000000 -0.267110
  0C   2px        0.000000 -0.664873 -0.000000  0.516796  0.038796  0.000000
  0C   2py       -0.351695  0.000000 -0.320916 -0.000000 -0.000000  0.280485
  0C   1dz2       0.383055 -0.000000 -0.007494  0.000000 -0.000000  0.167243
  0C   1dxz       0.000000  0.508767 -0.000000 -0.063466  0.014197  0.000000
  0C   1dyz       0.055308  0.000000  0.493739  0.000000 -0.000000  0.027840
  0C   1dx2y2     0.053116 -0.000000  0.043121  0.000000  0.000000 -0.147596
  0C   1dxy      -0.000000  0.101712  0.000000 -0.226776 -0.005900 -0.000000
  1O   1s        -0.078189  0.000000 -0.002640  0.000000  0.000000 -0.028673
  1O   2s        -0.275477 -0.000000 -0.042952  0.000000  0.000000 -0.068237
  1O   3s        -0.174756  0.000000  0.039395 -0.000000 -0.000000  0.122105
  1O   1pz        0.717226 -0.000000 -0.092613 -0.000000  0.000000 -0.026863
  1O   1px       -0.000000 -0.620591 -0.000000  0.250374 -0.016825 -0.000000
  1O   1py        0.024122 -0.000000 -0.425973 -0.000000 -0.000000  0.235375
  1O   2pz       -1.647513  0.000000  0.498195 -0.000000  0.000000 -0.567779
  1O   2px        0.000000  0.929498  0.000000 -0.818811  0.067385  0.000000
  1O   2py       -0.191036  0.000000  1.465129  0.000000  0.000000 -0.581491
  1O   1dz2       0.022390 -0.000000  0.000329  0.000000 -0.000000  0.008422
  1O   1dxz      -0.000000 -0.087987  0.000000 -0.012563  0.004660  0.000000
  1O   1dyz      -0.002925 -0.000000 -0.082197 -0.000000  0.000000 -0.095857
  1O   1dx2y2    -0.014547  0.000000 -0.077241 -0.000000  0.000000 -0.010595
  1O   1dxy       0.000000 -0.013207  0.000000 -0.161829  0.022899  0.000000
  2H   1s         0.156754  0.000000  0.230827  0.000000  0.000000 -0.030592
  2H   2s         0.331093 -0.000000  0.304315  0.000000 -0.000000  0.031076
  2H   1pz        0.133107 -0.000000  0.106253  0.000000  0.000000 -0.400483
  2H   1px        0.000000  0.100244 -0.000000  0.154467  0.553618  0.000000
  2H   1py       -0.079938  0.000000 -0.051629  0.000000 -0.000000  0.212614
  3H   1s        -0.006809 -0.000000  0.811551  0.000000  0.000000 -0.392943
  3H   2s        -0.880410  0.000000  0.373736 -0.000000  0.000000 -0.103290
  3H   1pz       -0.119149  0.000000  0.388412  0.000000 -0.000000  0.563985
  3H   1px        0.000000  0.274290 -0.000000  0.934930 -0.120311 -0.000000
  3H   1py       -0.152724  0.000000  0.066209  0.000000  0.000000 -0.333367
  4H   1s         0.035980  0.035188  0.308821 -0.179134 -0.024678  0.203028
  4H   2s         0.112427  0.226546  0.211725 -0.188352 -0.003700  0.135544
  4H   1pz        0.008237  0.164871 -0.012132 -0.104428  0.016764  0.342296
  4H   1px        0.012447 -0.042021  0.040574  0.007955 -0.324769 -0.028244
  4H   1py        0.002141  0.071999  0.111627 -0.037657 -0.522746  0.175975
  5H   1s         0.035980 -0.035188  0.308821  0.179134  0.024678  0.203028
  5H   2s         0.112428 -0.226546  0.211725  0.188352  0.003699  0.135544
  5H   1pz        0.008237 -0.164871 -0.012132  0.104428 -0.016764  0.342296
  5H   1px       -0.012447 -0.042021 -0.040574  0.007955 -0.324769  0.028244
  5H   1py        0.002141 -0.071999  0.111627  0.037657  0.522746  0.175975
                     30        31        32        33        34        35   
                   1.67970   1.71589   1.74635   1.76735   1.85262   1.96802
                   0.00000   0.00000   0.00000   0.00000   0.00000   0.00000
                  --------  --------  --------  --------  --------  --------
  0C   1s        -0.000000 -0.009667 -0.011178 -0.000000  0.199967 -0.005593
  0C   2s        -0.000000 -0.042330 -0.066737 -0.000000  0.356678 -0.040118
  0C   3s        -0.000000 -0.162909 -0.308549 -0.000000 -1.846669 -1.012159
  0C   1pz        0.000000  0.089914  0.132611 -0.000000  0.182903  0.263229
  0C   1px        0.091235  0.000000  0.000000  0.146609 -0.000000 -0.000000
  0C   1py       -0.000000  0.103706 -0.092612  0.000000  0.054331 -0.057313
  0C   2pz        0.000000  0.473449  1.066041 -0.000000  0.597879 -0.029935
  0C   2px       -1.255046  0.000000  0.000000 -0.180777  0.000000  0.000000
  0C   2py       -0.000000 -1.154596  0.385646  0.000000  0.576854 -0.746291
  0C   1dz2      -0.000000 -0.396175 -0.672429  0.000000 -0.679720 -0.285988
  0C   1dxz       0.101263 -0.000000 -0.000000 -0.721329  0.000000 -0.000000
  0C   1dyz      -0.000000 -0.206718  0.414407 -0.000000 -0.305542  0.528279
  0C   1dx2y2     0.000000  0.554448 -0.363777  0.000000  0.158717  0.060555
  0C   1dxy       0.405327 -0.000000  0.000000  0.525855 -0.000000 -0.000000
  1O   1s        -0.000000 -0.066875 -0.087957 -0.000000 -0.529818 -0.347860
  1O   2s        -0.000000 -0.110051 -0.105680 -0.000000 -1.108339 -0.756999
  1O   3s         0.000000  0.655740  1.131182  0.000000  2.661255  1.329843
  1O   1pz        0.000000  0.255696  0.443586 -0.000000  0.044832 -0.109296
  1O   1px       -0.086512  0.000000 -0.000000 -0.153456  0.000000 -0.000000
  1O   1py       -0.000000 -0.192438  0.049889 -0.000000 -0.113499 -0.004342
  1O   2pz        0.000000  0.083438  0.087994  0.000000  0.489287  0.963453
  1O   2px        0.420057 -0.000000 -0.000000 -0.085414 -0.000000 -0.000000
  1O   2py       -0.000000  0.421893 -0.180520 -0.000000 -0.638608  0.142736
  1O   1dz2      -0.000000 -0.014374 -0.025377 -0.000000 -0.102508 -0.071661
  1O   1dxz      -0.084638  0.000000  0.000000  0.158764 -0.000000  0.000000
  1O   1dyz       0.000000  0.007477 -0.068558  0.000000  0.010355 -0.018653
  1O   1dx2y2     0.000000  0.023156 -0.030248  0.000000  0.123850  0.088483
  1O   1dxy       0.031968 -0.000000 -0.000000 -0.017005 -0.000000 -0.000000
  2H   1s         0.000000  0.596760 -0.629943  0.000000  0.096245  0.132439
  2H   2s        -0.000000  0.176789  0.011651 -0.000000 -0.156941  0.572787
  2H   1pz       -0.000000 -0.278356 -0.505677  0.000000  0.433839 -0.161255
  2H   1px        0.506712 -0.000000 -0.000000 -0.098925 -0.000000 -0.000000
  2H   1py       -0.000000  0.382300 -0.128267  0.000000 -0.132841 -0.038586
  3H   1s        -0.000000  0.109454 -0.160218 -0.000000 -0.621647 -0.057004
  3H   2s        -0.000000 -0.097042  0.144017 -0.000000 -0.045090 -0.032421
  3H   1pz       -0.000000 -0.084373  0.025489  0.000000  0.191220 -0.663492
  3H   1px       -0.036817 -0.000000  0.000000  0.265521 -0.000000  0.000000
  3H   1py       -0.000000 -0.010706 -0.048461 -0.000000 -0.398733  0.238166
  4H   1s         0.483250 -0.462600  0.027852  0.479777  0.090815  0.044878
  4H   2s         0.314091 -0.086883 -0.063252 -0.233402  0.322729 -0.132702
  4H   1pz       -0.423131 -0.097605 -0.233953  0.446673  0.052373  0.533513
  4H   1px        0.409681 -0.021399  0.057213  0.071306 -0.202838  0.014182
  4H   1py       -0.004235  0.341238 -0.046483 -0.139769 -0.265888  0.138975
  5H   1s        -0.483250 -0.462600  0.027852 -0.479777  0.090815  0.044878
  5H   2s        -0.314091 -0.086883 -0.063252  0.233402  0.322729 -0.132702
  5H   1pz        0.423131 -0.097605 -0.233953 -0.446673  0.052373  0.533513
  5H   1px        0.409681  0.021399 -0.057213  0.071306  0.202838 -0.014182
  5H   1py        0.004235  0.341238 -0.046483  0.139769 -0.265888  0.138975
                     36        37        38        39        40        41   
                   2.06886   2.15899   2.16909   2.23694   2.48883   2.49844
                   0.00000   0.00000   0.00000   0.00000   0.00000   0.00000
                  --------  --------  --------  --------  --------  --------
  0C   1s        -0.030261 -0.195401  0.000000 -0.001848 -0.000000 -0.380691
  0C   2s        -0.078925 -0.416709  0.000000  0.000354 -0.000000 -1.014372
  0C   3s         0.214375  0.959365 -0.000000  0.038508 -0.000000 -1.844404
  0C   1pz       -0.279366 -0.326761  0.000000  0.141943 -0.000000 -0.570321
  0C   1px        0.000000  0.000000  0.147007 -0.000000 -1.267760  0.000000
  0C   1py        0.045761 -0.018441  0.000000 -0.285523 -0.000000 -0.344046
  0C   2pz       -0.543815 -0.816257  0.000000 -0.045964 -0.000000 -0.264059
  0C   2px        0.000000  0.000000  0.729525  0.000000 -1.121520  0.000000
  0C   2py       -0.081672  0.144986  0.000000 -0.630902 -0.000000 -0.365551
  0C   1dz2      -0.502187 -0.287784  0.000000 -0.129431  0.000000  0.704010
  0C   1dxz       0.000000  0.000000  0.560381  0.000000 -0.647757  0.000000
  0C   1dyz      -0.235400  0.211465  0.000000 -0.540543 -0.000000 -0.303014
  0C   1dx2y2    -0.456205  0.384496  0.000000 -0.560499  0.000000  0.227211
  0C   1dxy       0.000000  0.000000  0.833168  0.000000  1.131554 -0.000000
  1O   1s         0.184425  0.531811 -0.000000 -0.021864 -0.000000 -0.181385
  1O   2s         0.371752  1.211234 -0.000000  0.020750 -0.000000 -0.412576
  1O   3s        -1.163703 -1.521176  0.000000  0.842132  0.000000  0.415348
  1O   1pz        0.332864  0.103742 -0.000000 -0.128879 -0.000000 -0.187288
  1O   1px       -0.000000 -0.000000  0.137064 -0.000000 -0.040252  0.000000
  1O   1py        0.311432 -0.279317  0.000000 -0.481937  0.000000  0.036572
  1O   2pz       -0.352707 -0.609970  0.000000 -0.019469  0.000000  0.159664
  1O   2px       -0.000000 -0.000000 -0.240222 -0.000000  0.065120 -0.000000
  1O   2py        0.045282  0.059056  0.000000 -0.223974 -0.000000 -0.006187
  1O   1dz2       0.040389  0.061663 -0.000000  0.024701 -0.000000 -0.056045
  1O   1dxz      -0.000000 -0.000000 -0.152630 -0.000000  0.114744 -0.000000
  1O   1dyz       0.114115 -0.090210 -0.000000  0.074711  0.000000  0.042226
  1O   1dx2y2    -0.092748  0.024482  0.000000  0.118796  0.000000  0.060254
  1O   1dxy       0.000000  0.000000  0.094134  0.000000  0.112271 -0.000000
  2H   1s        -0.105603  0.033096 -0.000000  0.155444  0.000000  1.141512
  2H   2s         0.135121 -0.030187  0.000000  0.424071  0.000000  0.644988
  2H   1pz        0.587993  0.089951 -0.000000  0.201184 -0.000000 -0.541532
  2H   1px       -0.000000 -0.000000 -0.928228 -0.000000 -0.007753 -0.000000
  2H   1py       -0.265402 -0.306520  0.000000 -0.314815 -0.000000 -1.115177
  3H   1s         0.206957  0.040785  0.000000 -0.485228  0.000000  0.003455
  3H   2s         0.132158 -0.300094  0.000000 -0.358287 -0.000000 -0.069279
  3H   1pz        0.294833 -0.211534  0.000000 -0.304295  0.000000  0.032385
  3H   1px        0.000000 -0.000000  0.140391  0.000000  0.136003 -0.000000
  3H   1py        0.611026 -0.567047  0.000000 -0.806258  0.000000  0.047757
  4H   1s         0.017334 -0.101274 -0.041165 -0.139834  1.183111  0.558915
  4H   2s         0.060102  0.115961 -0.365674 -0.204206  0.680849  0.269919
  4H   1pz        0.245315  0.350254 -0.295901 -0.038042 -0.405435 -0.302046
  4H   1px       -0.048821 -0.399145 -0.079075  0.506431 -0.938190 -0.509546
  4H   1py        0.427181 -0.129974 -0.479377  0.403294  0.519204  0.351303
  5H   1s         0.017334 -0.101274  0.041165 -0.139834 -1.183110  0.558915
  5H   2s         0.060102  0.115961  0.365674 -0.204206 -0.680849  0.269919
  5H   1pz        0.245315  0.350254  0.295901 -0.038042  0.405435 -0.302046
  5H   1px        0.048821  0.399145 -0.079075 -0.506431 -0.938190  0.509546
  5H   1py        0.427181 -0.129974  0.479377  0.403294 -0.519204  0.351303
                     42        43        44        45        46        47   
                   2.51536   3.02715   3.11467   3.17739   3.29217   3.74776
                   0.00000   0.00000   0.00000   0.00000   0.00000   0.00000
                  --------  --------  --------  --------  --------  --------
  0C   1s        -0.131084 -0.000000  0.000000  0.088189 -0.041946 -0.001253
  0C   2s        -0.346386 -0.000000  0.000000  0.244533 -0.196325 -0.030178
  0C   3s        -0.661568  0.000000  0.000000  0.546335 -0.819243 -0.046435
  0C   1pz       -0.019435  0.000000 -0.000000 -0.355032  0.492709  0.103716
  0C   1px        0.000000 -0.141934  0.174216 -0.000000  0.000000 -0.000000
  0C   1py        1.189186  0.000000  0.000000  0.166866 -0.011324  0.027451
  0C   2pz        0.035665  0.000000 -0.000000 -0.193647  0.523600  0.181193
  0C   2px        0.000000 -0.269092 -0.072318 -0.000000  0.000000 -0.000000
  0C   2py        0.938274  0.000000 -0.000000  0.109799  0.080079 -0.038620
  0C   1dz2       0.211059 -0.000000  0.000000  0.325733 -0.459156 -0.160786
  0C   1dxz       0.000000  0.191013  0.720584 -0.000000  0.000000 -0.000000
  0C   1dyz       0.646149  0.000000  0.000000  0.536112  0.390318 -0.022851
  0C   1dx2y2    -1.163116 -0.000000 -0.000000 -0.139739  0.057752 -0.133631
  0C   1dxy      -0.000000  0.338887 -0.133702  0.000000 -0.000000  0.000000
  1O   1s        -0.080927  0.000000  0.000000  0.232005 -0.247634  0.080774
  1O   2s        -0.150873  0.000000  0.000000  0.447989 -0.467171  0.097935
  1O   3s         0.543772  0.000000 -0.000000 -1.228720  1.481081 -1.159761
  1O   1pz       -0.126833  0.000000  0.000000  0.052099  0.009073  0.121770
  1O   1px       -0.000000 -0.044081 -0.016262 -0.000000  0.000000 -0.000000
  1O   1py       -0.114301 -0.000000  0.000000  0.026483 -0.084841  0.302934
  1O   2pz        0.211845  0.000000 -0.000000 -0.580671  0.662547  0.519504
  1O   2px       -0.000000  0.332596  0.191059 -0.000000 -0.000000  0.000000
  1O   2py       -0.210197 -0.000000  0.000000  0.484512  0.005291  0.986355
  1O   1dz2      -0.018382  0.000000 -0.000000 -0.332085  0.972485  0.511834
  1O   1dxz      -0.000000  0.174281  1.007619 -0.000000 -0.000000  0.000000
  1O   1dyz      -0.078173  0.000000  0.000000  0.727800  0.527049 -0.669721
  1O   1dx2y2    -0.066525 -0.000000  0.000000  0.666495 -0.098357  0.938979
  1O   1dxy      -0.000000 -1.010599  0.195914 -0.000000  0.000000 -0.000000
  2H   1s        -1.088838 -0.000000 -0.000000 -0.318709 -0.127088 -0.101201
  2H   2s        -0.554140 -0.000000 -0.000000 -0.131906 -0.033776 -0.083289
  2H   1pz        0.420864  0.000000 -0.000000 -0.089458 -0.087457  0.133522
  2H   1px        0.000000 -0.119361 -0.056112  0.000000  0.000000  0.000000
  2H   1py        0.911354  0.000000  0.000000  0.293970  0.116168  0.059267
  3H   1s        -0.197106 -0.000000  0.000000  0.415595 -0.213194  1.462199
  3H   2s        -0.053927  0.000000  0.000000  0.001360  0.125831  0.353502
[...]
  4H   1s         0.874258  0.172731 -0.251558  0.150071  0.051808  0.007525
  4H   2s         0.453101  0.107369  0.018311  0.001125  0.045862 -0.038229
  4H   1pz       -0.325089 -0.131942 -0.155360 -0.016107  0.051521 -0.055355
  4H   1px       -0.657414 -0.091792  0.213885 -0.118386 -0.084044  0.025480
  4H   1py        0.477235 -0.020602 -0.141299  0.018437 -0.050065  0.054903
  5H   1s         0.874258 -0.172731  0.251558  0.150071  0.051808  0.007525
  5H   2s         0.453101 -0.107369 -0.018311  0.001125  0.045862 -0.038229
  5H   1pz       -0.325089  0.131942  0.155360 -0.016107  0.051521 -0.055355
  5H   1px        0.657414 -0.091792  0.213885  0.118386  0.084044 -0.025480
  5H   1py        0.477235  0.020602  0.141299  0.018437 -0.050065  0.054903



                    ********************************
                    * MULLIKEN POPULATION ANALYSIS *
                    ********************************

--------------------------------------------
MULLIKEN ATOMIC CHARGES AND SPIN POPULATIONS
--------------------------------------------
   0 C :    0.048764   -0.000000
   1 O :   -0.302410   -0.000000
   2 H :    0.049272   -0.000000
   3 H :    0.158225   -0.000000
   4 H :    0.023075   -0.000000
   5 H :    0.023075   -0.000000
Sum of atomic charges         :    0.0000000
Sum of atomic spin populations:   -0.0000000

-----------------------------------------------------
MULLIKEN REDUCED ORBITAL CHARGES AND SPIN POPULATIONS
-----------------------------------------------------
CHARGE
  0 C s       :     3.062130  s :     3.062130
      pz      :     0.743263  p :     2.793242
      px      :     1.000947
      py      :     1.049033
      dz2     :     0.030576  d :     0.095864
      dxz     :     0.028613
      dyz     :     0.023667
      dx2y2   :     0.005783
      dxy     :     0.007226

  1 O s       :     3.721729  s :     3.721729
      pz      :     1.283717  p :     4.566644
      px      :     1.908971
      py      :     1.373956
      dz2     :     0.005288  d :     0.014037
      dxz     :     0.001796
      dyz     :     0.002983
      dx2y2   :     0.003250
      dxy     :     0.000720

  2 H s       :     0.924022  s :     0.924022
      pz      :     0.004380  p :     0.026706
      px      :     0.006270
      py      :     0.016056

  3 H s       :     0.765561  s :     0.765561
      pz      :     0.017605  p :     0.076213
      px      :     0.021427
      py      :     0.037181

  4 H s       :     0.950269  s :     0.950269
      pz      :     0.004352  p :     0.026657
      px      :     0.013920
      py      :     0.008385

  5 H s       :     0.950269  s :     0.950269
      pz      :     0.004352  p :     0.026657
      px      :     0.013920
      py      :     0.008385


SPIN
  0 C s       :    -0.000000  s :    -0.000000
      pz      :    -0.000000  p :     0.000000
      px      :     0.000000
      py      :     0.000000
      dz2     :     0.000000  d :    -0.000000
      dxz     :    -0.000000
      dyz     :    -0.000000
      dx2y2   :     0.000000
      dxy     :    -0.000000

  1 O s       :     0.000000  s :     0.000000
      pz      :    -0.000000  p :    -0.000000
      px      :    -0.000000
      py      :    -0.000000
      dz2     :     0.000000  d :    -0.000000
      dxz     :    -0.000000
      dyz     :    -0.000000
      dx2y2   :     0.000000
      dxy     :    -0.000000

  2 H s       :    -0.000000  s :    -0.000000
      pz      :    -0.000000  p :     0.000000
      px      :     0.000000
      py      :     0.000000

  3 H s       :    -0.000000  s :    -0.000000
      pz      :    -0.000000  p :    -0.000000
      px      :     0.000000
      py      :    -0.000000

  4 H s       :    -0.000000  s :    -0.000000
      pz      :    -0.000000  p :    -0.000000
      px      :    -0.000000
      py      :    -0.000000

  5 H s       :    -0.000000  s :    -0.000000
      pz      :    -0.000000  p :     0.000000
      px      :     0.000000
      py      :    -0.000000



                     *******************************
                     * LOEWDIN POPULATION ANALYSIS *
                     *******************************

-------------------------------------------
LOEWDIN ATOMIC CHARGES AND SPIN POPULATIONS
-------------------------------------------
   0 C :   -0.056935   -0.000000
   1 O :   -0.054343   -0.000000
   2 H :    0.028387   -0.000000
   3 H :    0.062297   -0.000000
   4 H :    0.010297   -0.000000
   5 H :    0.010297   -0.000000

----------------------------------------------------
LOEWDIN REDUCED ORBITAL CHARGES AND SPIN POPULATIONS
----------------------------------------------------
CHARGE
  0 C s       :     2.828240  s :     2.828240
      pz      :     0.828243  p :     2.976685
      px      :     1.064536
      py      :     1.083906
      dz2     :     0.073895  d :     0.252011
      dxz     :     0.074064
      dyz     :     0.054744
      dx2y2   :     0.022073
      dxy     :     0.027235

  1 O s       :     3.410317  s :     3.410317
      pz      :     1.329621  p :     4.618146
      px      :     1.846902
      py      :     1.441623
      dz2     :     0.010257  d :     0.025880
      dxz     :     0.003032
      dyz     :     0.006059
      dx2y2   :     0.006282
      dxy     :     0.000251

  2 H s       :     0.899284  s :     0.899284
      pz      :     0.014351  p :     0.072330
      px      :     0.014819
      py      :     0.043159

  3 H s       :     0.749432  s :     0.749432
      pz      :     0.038723  p :     0.188271
      px      :     0.054804
      py      :     0.094744

  4 H s       :     0.916027  s :     0.916027
      pz      :     0.014715  p :     0.073676
      px      :     0.037041
      py      :     0.021920

  5 H s       :     0.916027  s :     0.916027
      pz      :     0.014715  p :     0.073676
      px      :     0.037041
      py      :     0.021920


SPIN
  0 C s       :    -0.000000  s :    -0.000000
      pz      :    -0.000000  p :    -0.000000
      px      :    -0.000000
      py      :    -0.000000
      dz2     :     0.000000  d :    -0.000000
      dxz     :    -0.000000
      dyz     :    -0.000000
      dx2y2   :    -0.000000
      dxy     :    -0.000000

  1 O s       :     0.000000  s :     0.000000
      pz      :    -0.000000  p :    -0.000000
      px      :    -0.000000
      py      :    -0.000000
      dz2     :    -0.000000  d :    -0.000000
      dxz     :    -0.000000
      dyz     :    -0.000000
      dx2y2   :     0.000000
      dxy     :    -0.000000

  2 H s       :    -0.000000  s :    -0.000000
      pz      :    -0.000000  p :     0.000000
      px      :     0.000000
      py      :     0.000000

  3 H s       :    -0.000000  s :    -0.000000
      pz      :     0.000000  p :    -0.000000
      px      :    -0.000000
      py      :    -0.000000

  4 H s       :    -0.000000  s :    -0.000000
      pz      :    -0.000000  p :    -0.000000
      px      :    -0.000000
      py      :     0.000000

  5 H s       :    -0.000000  s :    -0.000000
      pz      :     0.000000  p :     0.000000
      px      :     0.000000
      py      :     0.000000



                      *****************************
                      * MAYER POPULATION ANALYSIS *
                      *****************************

  NA   - Mulliken gross atomic population
  ZA   - Total nuclear charge
  QA   - Mulliken gross atomic charge
  VA   - Mayer's total valence
  BVA  - Mayer's bonded valence
  FA   - Mayer's free valence

  ATOM       NA         ZA         QA         VA         BVA        FA
  0 C      5.9512     6.0000     0.0488     4.0276     4.0276     0.0000
  1 O      8.3024     8.0000    -0.3024     2.1077     2.1077     0.0000
  2 H      0.9507     1.0000     0.0493     0.9817     0.9817    -0.0000
  3 H      0.8418     1.0000     0.1582     1.0260     1.0260    -0.0000
  4 H      0.9769     1.0000     0.0231     0.9713     0.9713    -0.0000
  5 H      0.9769     1.0000     0.0231     0.9713     0.9713    -0.0000

  Mayer bond orders larger than 0.100000
B(  0-C ,  1-O ) :   1.0818 B(  0-C ,  2-H ) :   0.9820 B(  0-C ,  4-H ) :   0.9743 
B(  0-C ,  5-H ) :   0.9743 B(  1-O ,  3-H ) :   1.0018 

-------
TIMINGS
-------

Total SCF time: 0 days 0 hours 0 min 1 sec 

Total time                  ....       1.338 sec
Sum of individual times     ....       1.265 sec  ( 94.6%)

SCF preparation             ....       0.263 sec  ( 19.7%)
Fock matrix formation       ....       0.953 sec  ( 71.3%)
  Startup                   ....       0.001 sec  (  0.1% of F)
  Split-RI-J                ....       0.028 sec  (  3.0% of F)
  Chain of spheres X        ....       0.740 sec  ( 77.6% of F)
  XC integration            ....       0.221 sec  ( 23.2% of F)
    XC Preparation          ....       0.000 sec  (  0.0% of XC)
    Basis function eval.    ....       0.062 sec  ( 28.1% of XC)
    Density eval.           ....       0.042 sec  ( 18.9% of XC)
    XC-Functional eval.     ....       0.036 sec  ( 16.5% of XC)
    XC-Potential eval.      ....       0.041 sec  ( 18.3% of XC)
Diagonalization             ....       0.000 sec  (  0.0%)
Density matrix formation    ....       0.007 sec  (  0.5%)
Total Energy calculation    ....       0.004 sec  (  0.3%)
Population analysis         ....       0.004 sec  (  0.3%)
Orbital Transformation      ....       0.005 sec  (  0.4%)
Orbital Orthonormalization  ....       0.000 sec  (  0.0%)
DIIS solution               ....       0.017 sec  (  1.3%)
SOSCF solution              ....       0.011 sec  (  0.8%)
Finished LeanSCF after   1.3 sec

Maximum memory used throughout the entire LEANSCF-calculation: 6.7 MB


-------------------------------------------------------------------------------
                          DFT DISPERSION CORRECTION                            
                                                                               
                              DFTD3 V3.1  Rev 1                                
                              USING zero damping                               
-------------------------------------------------------------------------------
The omegaB97X-D3 functional is recognized. Fit by Chai et al.
Active option DFTDOPT                   ...         3   

molecular C6(AA) [au] = 208.790664 


            DFT-D V3
 parameters
 s6 scaling factor         :     1.0000 
 rs6 scaling factor        :     1.2810 
 s8 scaling factor         :     1.0000 
 rs8 scaling factor        :     1.0940 
 Damping factor alpha6     :    14.0000 
 Damping factor alpha8     :    16.0000 
 ad hoc parameters k1-k3   :    16.0000     1.3333    -4.0000 

 Edisp/kcal,au: -0.143304007343  -0.000228369448 
 E6   /kcal   :  -0.029252121 
 E8   /kcal   :  -0.114051887 
 % E8         :  79.587367226 

-------------------------   ----------------
Dispersion correction           -0.000228369
-------------------------   ----------------


-------------------------   --------------------
FINAL SINGLE POINT ENERGY      -115.688736256702
-------------------------   --------------------



           ************************************************************
           *        Program running with 4 parallel MPI-processes     *
           *              working on a common directory               *
           ************************************************************

------------------------------------------------------------------------------
                              ORCA PROPERTY CALCULATIONS
------------------------------------------------------------------------------

GBWName                                 ... MeOH_n.gbw
Number of atoms                         ...      6
Number of basis functions               ...     60
Max core memory                         ...   2000 MB

Electric properties:
Dipole moment                           ... YES
Quadrupole moment                       ...  NO
Static polarizability (Dipole/Dipole)   ...  NO
Static polarizability (Dipole/Quad.)    ...  NO
Static polarizability (Quad./Quad.)     ...  NO
Static polarizability (Velocity)        ...  NO
Static hyperpolarizability              ...  NO

Atomic electric properties:
Dipole moment                           ...  NO
Quadrupole moment                       ...  NO
Static polarizability                   ...  NO

Choice of electric origin               ... Center of mass
Position of electric origin             ...    -0.000000    -0.000005     0.000024

General magnetic properties:
Magnetizability                         ...  NO

EPR properties:
g-Tensor (aka g-matrix)                 ...  NO
Zero-Field splitting spin-orbit         ...  NO
Zero-field splitting spin-spin          ...  NO
Hyperfine couplings                     ...  NO (   0 nuclei)
Quadrupole couplings                    ...  NO (   0 nuclei)
Contact density                         ...  NO (   0 nuclei)

NMR properties:
Chemical shifts                         ...  NO (   0 nuclei)
Spin-rotation constants                 ...  NO (   0 nuclei)
Spin-spin couplings                     ...  NO (   0 nuclei,    0 pairs)

Choice of magnetic origin               ... GIAO
Position of magnetic origin             ...     0.000000     0.000000     0.000000

Properties with geometric perturbations:
SCF Hessian                             ...  NO
IR spectrum                             ...  NO
VCD spectrum                            ...  NO
X-ray spectroscopy properties:
SCF XES/XAS/RIXS spectra                ...  NO

SCF SOC stabilization energy            ...  NO
Diagonal Born-Oppenheimer correction    ...  NO

-------------
DIPOLE MOMENT
-------------

Method             : SCF
Type of density    : Electron Density
Multiplicity       :   1
Irrep              :   0
Energy             :  -115.6885078872543602 Eh
Basis              : AO
                                X                 Y                 Z
Electronic contribution:     -0.000000003       0.306238171      -1.825152222
Nuclear contribution   :      0.000000000      -0.870097616       2.118422598
                        -----------------------------------------
Total Dipole Moment    :     -0.000000003      -0.563859445       0.293270376
                        -----------------------------------------
Magnitude (a.u.)       :      0.635566666
Magnitude (Debye)      :      1.615482080



--------------------
Rotational spectrum 
--------------------
 
Rotational constants in cm-1:             4.075243             0.847901             0.816681 
Rotational constants in MHz :        122172.700873         25419.439230         24483.491755 

Dipole components along the rotational axes: 
x,y,z [a.u.] :     0.293268    -0.563861     0.000000 
x,y,z [Debye]:     0.745427    -1.433220     0.000000 

 

Dipole moment calculation done in   0.0 sec 

Maximum memory used throughout the entire PROP-calculation: 4.0 MB

--------------------------------
SUGGESTED CITATIONS FOR THIS RUN
--------------------------------

Below you find a list of papers that are relevant to this ORCA run
We neither can nor want to force you to cite these papers, but we appreciate if you do
You receive ORCA, which is the product of decades of hard work by many enthusiastic individuals, for free
The only thing we kindly ask in return is that you cite our papers,
We deeply appreciate it, if you show your appreciation for ORCA by not just citing the generic ORCA reference.

Please note that relegating all ORCA citations to the supporting information does *not* help us.
SI sections are not indexed - citations you put there will not count into any citation statistics
But we need these citations in order to attract the funding resources that allow us to do what we are doing

Therefore, if you are a happy ORCA user, please consider citing a few of the papers listed below in the main body of your paper

In addition to the list printed below, the program has created the file MeOH_n.bibtex that contains the list in bibtex format
You can import this file easily into all common literature databanks and citation aid programs


List of essential papers. We consider these as the minimum necessary citations

  1. Neese, F.
     Software update: the ORCA program system, version 6.0
     WIRES Comput. Molec. Sci. 2025 15(1), e70019
     doi.org/10.1002/wcms.7019

List of papers to cite with high priority. The work reported in these papers was absolutely
necessary for this run to complete.
Our perspective: the developers of density functionals and basis sets usually get cited in chemistry papers
Good! But without the algorithms to do something with them, the functionals or basis sets would not do anything.
Hence, in our opinion, the algorithm design and method developments papers are equally worthy of getting cited

  1. Neese, F.
     An improvement of the resolution of the identity approximation for the formation of the Coulomb matrix
     J. Comp. Chem. 2003 24(14), 1740-1747
     doi.org/10.1002/jcc.10318
  2. Neese, F.; Wennmohs, F.; Hansen, A.; Becker, U.
     Efficient, approximate and parallel Hartree-Fock and hybrid DFT calculations. A 'chain-of-spheres' algorithm for the Hartree-Fock exchange
     Chem. Phys. 2009 356(1-3), 98-109
     doi.org/10.1016/j.chemphys.2008.10.036
  3. Grimme, S.; Antony, J.; Ehrlich, S.; Krieg, H.
     A consistent and accurate ab initio parametrization of density functional dispersion correction (DFT-D) for the 94 elements H-Pu
     J. Chem. Phys. 2010 132 , 154104
     doi.org/10.1063/1.3382344
  4. Helmich-Paris, B.; de Souza, B.; Neese, F.; Izsák, R.
     An improved chain of spheres for exchange algorithm
     J. Chem. Phys. 2021 155(10), 104109
     doi.org/10.1063/5.0058766
  5. Neese, F.
     The SHARK Integral Generation and Digestion System
     J. Comp. Chem. 2022 44(3), 381
     doi.org/10.1002/jcc.26942

List of suggested additional citations. These are papers that are important in the 'surrounding' of 
of this run, or papers that preceded the highly important papers. If you like your results we are grateful for a citation.

  1. Izsak, R.; Neese, F.
     An overlap fitted chain of spheres exchange method
     J. Chem. Phys. 2011 135 , 144105
     doi.org/10.1063/1.3646921
  2. Izsak, R.; Hansen, A.; Neese, F.
     The resolution of identity and chain of spheres approximations for the LPNO-CCSD singles Fock term
     Molec. Phys. 2012 110 , 2413-2417
     doi.org/10.1080/00268976.2012.687466
  3. Neese, F.
     The ORCA program system
     WIRES Comput. Molec. Sci. 2012 2(1), 73-78
     doi.org/10.1002/wcms.81
  4. Izsak, R.; Neese, F.; Klopper, W.
     Robust fitting techniques in the chain of spheres approximation to the Fock exchange: The role of the complementary space
     J. Chem. Phys. 2013 139 , 
     doi.org/10.1063/1.4819264
  5. Neese, F.
     Software update: the ORCA program system, version 4.0
     WIRES Comput. Molec. Sci. 2018 8(1), 1-6
     doi.org/10.1002/wcms.1327
  6. Neese, F.; Wennmohs, F.; Becker, U.; Riplinger, C.
     The ORCA quantum chemistry program package
     J. Chem. Phys. 2020 152(22), 224108
     doi.org/10.1063/5.0004608
  7. Neese, F.
     Software update: The ORCA program system—Version 5.0
     WIRES Comput. Molec. Sci. 2022 12(1), e1606
     doi.org/10.1002/wcms.1606

List of optional additional citations

  1. Neese, F.
     Approximate second-order SCF convergence for spin unrestricted wavefunctions
     Chem. Phys. Lett. 2000 325(1-3), 93-98
     doi.org/10.1016/s0009-2614(00)00662-x

Timings for individual modules:

Sum of individual times          ...        2.944 sec (=   0.049 min)
Startup calculation              ...        0.696 sec (=   0.012 min)  23.7 %
SCF iterations                   ...        1.872 sec (=   0.031 min)  63.6 %
Property calculations            ...        0.376 sec (=   0.006 min)  12.8 %
                             ****ORCA TERMINATED NORMALLY****
TOTAL RUN TIME: 0 days 0 hours 0 minutes 3 seconds 353 msec
