[Molden Format]
[Title]
 Molden file created by orca_2mkl for BaseName=MeOH_i

[Atoms] AU
C    1   6          0.0000000000        -0.0278298078         1.3522902891 
O    2   8          0.0000000000         0.1314351769        -1.2852857027 
H    3   1          0.0000000000         1.9110314733         2.1498662115 
H    4   1          0.0000000000        -1.6374837888        -1.9077845458 
H    5   1          1.7293239120        -1.0141188842         2.0226592968 
H    6   1         -1.7293239120        -1.0141188842         2.0226592968 
[GTO]
  1 0
s   8 1.0 
     6665.0000000000         0.3635842998
     1000.0000000000         0.6749857928
      228.0000000000         1.1316199410
       64.7100000000         1.6530092121
       21.0600000000         1.9238206437
        7.4950000000         1.4472783162
        2.7970000000         0.4391631292
        0.5215000000         0.0066458037
s   8 1.0 
     6665.0000000000        -0.1541797483
     1000.0000000000        -0.2937853735
      228.0000000000        -0.4808958038
       64.7100000000        -0.7614343161
       21.0600000000        -0.9001038923
        7.4950000000        -0.9726113518
        2.7970000000        -0.3940419460
        0.5215000000         0.4783944249
s   1 1.0 
        0.1596000000         0.1799636353
p   3 1.0 
        9.4390000000         1.3437371095
        2.0020000000         1.0631680879
        0.5456000000         0.5082318338
p   1 1.0 
        0.1517000000         0.1349497436
d   1 1.0 
        0.5500000000         1.0013935509

  2 0
s   8 1.0 
    11720.0000000000         0.5697017158
     1759.0000000000         1.0583521000
      400.8000000000         1.7762810558
      113.7000000000         2.5994118899
       37.0300000000         3.0268459958
       13.2700000000         2.2223943344
        5.0250000000         0.6477954310
        1.0130000000         0.0111186960
s   8 1.0 
    11720.0000000000        -0.2524342625
     1759.0000000000        -0.4804910908
      400.8000000000        -0.7862996613
      113.7000000000        -1.2541699039
       37.0300000000        -1.4912179216
       13.2700000000        -1.6108317779
        5.0250000000        -0.5497983753
        1.0130000000         0.7882822080
s   1 1.0 
        0.3023000000         0.2905619240
p   3 1.0 
       17.7000000000         3.2436193456
        3.8540000000         2.5672796523
        1.0460000000         1.1176693232
p   1 1.0 
        0.2753000000         0.2842482844
d   1 1.0 
        1.1850000000         3.8368709885

  3 0
s   3 1.0 
       13.0100000000         0.1635484228
        1.9620000000         0.2774175417
        0.4446000000         0.3157493070
s   1 1.0 
        0.1220000000         0.1471227944
p   1 1.0 
        0.7270000000         0.9568813751

  4 0
s   3 1.0 
       13.0100000000         0.1635484228
        1.9620000000         0.2774175417
        0.4446000000         0.3157493070
s   1 1.0 
        0.1220000000         0.1471227944
p   1 1.0 
        0.7270000000         0.9568813751

  5 0
s   3 1.0 
       13.0100000000         0.1635484228
        1.9620000000         0.2774175417
        0.4446000000         0.3157493070
s   1 1.0 
        0.1220000000         0.1471227944
p   1 1.0 
        0.7270000000         0.9568813751

  6 0
s   3 1.0 
       13.0100000000         0.1635484228
        1.9620000000         0.2774175417
        0.4446000000         0.3157493070
s   1 1.0 
        0.1220000000         0.1471227944
p   1 1.0 
        0.7270000000         0.9568813751

[5D]
[7F]
[9G]
[MO]
 Sym=     1a
 Ene= -1.97009603525463E+01
 Spin= Alpha
 Occup= 1.000000
  1       0.000099172022
  2       0.000128789595
  3      -0.005768139211
  4       0.000000000001
  5      -0.000014022569
  6       0.000577815788
  7      -0.000000000003
  8      -0.000228842792
  9       0.002534911235
 10       0.000188989140
 11      -0.000000000000
 12      -0.000160981345
 13      -0.000004724707
 14       0.000000000001
 15      -1.003625933834
 16      -0.008409178644
 17       0.011417191620
 18      -0.000000000002
 19       0.001414688625
 20      -0.000987459254
 21       0.000000000003
 22      -0.000884877748
 23       0.003007833632
 24       0.000339998306
 25      -0.000000000001
 26      -0.000199593360
 27      -0.000062441139
 28      -0.000000000001
 29       0.000729471826
 30       0.000423060441
 31      -0.000000000000
 32      -0.000140639790
 33      -0.000280873917
 34      -0.000287291410
 35      -0.000211761905
 36      -0.000000000000
 37       0.000927131481
 38       0.000092884512
 39       0.000633610736
 40       0.000274751640
 41      -0.000058018542
 42       0.000072566699
 43      -0.000274100189
 44       0.000633610732
 45       0.000274751639
 46       0.000058018541
 47       0.000072566699
 48      -0.000274100188
 Sym=     1a
 Ene= -1.06377525776922E+01
 Spin= Alpha
 Occup= 1.000000
  1       1.005663309492
  2       0.014378804996
  3      -0.012232790979
  4       0.000000000000
  5      -0.000274729311
  6      -0.000620675829
  7       0.000000000004
  8       0.000209974175
  9      -0.000849831662
 10      -0.000181742689
 11       0.000000000001
 12       0.000049385648
 13       0.000197074384
 14      -0.000000000004
 15       0.000413354596
 16       0.000734579360
 17      -0.001740086752
 18       0.000000000002
 19       0.000047848016
 20      -0.000090747631
 21      -0.000000000002
 22       0.000799872394
 23      -0.001607453838
 24      -0.000843390075
 25       0.000000000000
 26       0.000111576693
 27       0.000212412306
 28      -0.000000000000
 29      -0.001063691310
 30       0.002089715992
 31       0.000000000001
 32       0.001318551613
 33       0.000610649458
 34       0.000757645935
 35       0.000424753764
 36       0.000000000001
 37       0.000156477703
 38       0.000662798133
 39      -0.001199777406
 40       0.002299232359
 41       0.001237002473
 42      -0.000771785705
 43       0.000569559108
 44      -0.001199777392
 45       0.002299232371
 46      -0.001237002465
 47      -0.000771785701
 48       0.000569559104
 Sym=     1a
 Ene= -1.55336283706236E+00
 Spin= Alpha
 Occup= 1.000000
  1       0.009389786076
  2      -0.121401232697
  3      -0.020890009664
  4       0.000000000136
  5       0.001875878170
  6       0.107619186224
  7       0.000000000294
  8       0.006963513247
  9       0.008260022129
 10      -0.028666247528
 11       0.000000000359
 12      -0.002595703300
 13      -0.001049483938
 14       0.000000000277
 15      -0.000974583095
 16      -0.462607092716
 17      -0.409965547223
 18      -0.000000000083
 19       0.087096586517
 20      -0.070467681175
 21       0.000000000045
 22       0.010109490638
 23      -0.039594442927
 24      -0.001865787500
 25       0.000000000043
 26       0.000624797150
 27      -0.003948579210
 28      -0.000000000003
 29      -0.025935732877
 30      -0.003629952697
 31      -0.000000000112
 32       0.004666934331
 33       0.004765035672
 34      -0.156863544366
 35       0.004963635998
 36      -0.000000000053
 37      -0.033586799229
 38      -0.014918356765
 39      -0.029074232267
 40      -0.002119265375
 41       0.005700262730
 42      -0.003120996637
 43       0.004690583691
 44      -0.029074232146
 45      -0.002119264908
 46      -0.005700262713
 47      -0.003120995673
 48       0.004690584616
 Sym=     1a
 Ene= -1.11939840941439E+00
 Spin= Alpha
 Occup= 1.000000
  1       0.011313837382
  2      -0.357991533818
  3      -0.220805989987
  4      -0.000000000251
  5      -0.011936790463
  6       0.015709626213
  7       0.000000000122
  8       0.002780934952
  9      -0.005905874328
 10      -0.008642446871
 11       0.000000000081
 12       0.007134146364
 13      -0.001618532097
 14      -0.000000000127
 15       0.006219895968
 16       0.126155732020
 17       0.113210080525
 18      -0.000000000239
 19      -0.134549002382
 20      -0.288572684248
 21       0.000000000073
 22      -0.032798443282
 23      -0.133680896615
 24      -0.017020993334
 25      -0.000000000042
 26       0.007220086790
 27      -0.002215854117
 28       0.000000000034
 29      -0.150493166775
 30      -0.009216910987
 31       0.000000000058
 32       0.020148737657
 33       0.006580387938
 34       0.189977738345
 35       0.010904693171
 36       0.000000000033
 37       0.029542603672
 38       0.004874202629
 39      -0.160768602501
 40      -0.006104797228
 41       0.017556426524
 42      -0.011079748275
 43       0.006678326686
 44      -0.160768602505
 45      -0.006104797142
 46      -0.017556426490
 47      -0.011079748476
 48       0.006678326355
 Sym=     1a
 Ene= -9.67818699946148E-01
 Spin= Alpha
 Occup= 1.000000
  1       0.006265689815
  2      -0.116115486668
  3      -0.116235870789
  4      -0.000000000445
  5       0.161541019255
  6      -0.188749466214
  7      -0.000000000931
  8       0.074325218792
  9      -0.041200012658
 10       0.021116234454
 11      -0.000000000854
 12      -0.025474103852
 13      -0.002496939678
 14      -0.000000000603
 15       0.004858117245
 16       0.124699346613
 17       0.195332374744
 18      -0.000000000215
 19       0.420837738965
 20       0.202366622520
 21      -0.000000000342
 22       0.185488972197
 23       0.078414316492
 24       0.010061992109
 25      -0.000000000115
 26       0.004306874881
 27       0.014331713791
 28       0.000000000050
 29      -0.020765952249
 30      -0.014967770834
 31       0.000000000341
 32       0.003890449911
 33      -0.001323637269
 34      -0.282147264695
 35      -0.030209108174
 36       0.000000000038
 37      -0.030876173120
 38      -0.016671823986
 39      -0.158042503058
 40      -0.013785569209
 41       0.015297615207
 42      -0.004641325825
 43       0.000954679512
 44      -0.158042503240
 45      -0.013785570431
 46      -0.015297615013
 47      -0.004641328835
 48       0.000954676786
 Sym=     1a
 Ene= -9.16130061902929E-01
 Spin= Alpha
 Occup= 1.000000
  1       0.000000000150
  2       0.000000000309
  3      -0.000000000901
  4      -0.279945641814
  5      -0.000000000621
  6      -0.000000000221
  7      -0.098557123712
  8       0.000000004082
  9       0.000000003520
 10       0.000000000422
 11       0.026386681018
 12      -0.000000000022
 13       0.000000001268
 14       0.009351494239
 15      -0.000000000283
 16      -0.000000000663
 17       0.000000002054
 18      -0.557163774275
 19      -0.000000000824
 20       0.000000000475
 21      -0.318557047674
 22      -0.000000001378
 23       0.000000001151
 24      -0.000000000046
 25      -0.015686242198
 26      -0.000000000057
 27      -0.000000000074
 28       0.014720893390
 29      -0.000000000670
 30      -0.000000002880
 31      -0.008452530610
 32       0.000000000073
 33      -0.000000000327
 34      -0.000000000722
 35       0.000000001241
 36      -0.021484213051
 37      -0.000000000037
 38       0.000000000003
 39      -0.158547071874
 40      -0.024748972523
 41       0.006152867674
 42      -0.008957791124
 43       0.004752519188
 44       0.158547072134
 45       0.024748974293
 46       0.006152868761
 47       0.008957784727
 48      -0.004752523541
 Sym=     1a
 Ene= -8.75644082625590E-01
 Spin= Alpha
 Occup= 1.000000
  1       0.004635724464
  2      -0.050280075358
  3      -0.080457755859
  4       0.000000000741
  5      -0.139987289122
  6      -0.304317572748
  7       0.000000001153
  8      -0.082082947380
  9      -0.082926761690
 10       0.034475760426
 11       0.000000001055
 12       0.016065429595
 13       0.001426247562
 14       0.000000000471
 15       0.000632163890
 16      -0.090201428254
 17      -0.165646378345
 18       0.000000000513
 19      -0.286113559078
 20       0.444476095765
 21       0.000000000403
 22      -0.160906678043
 23       0.236240352041
 24       0.006982956653
 25       0.000000000143
 26      -0.020087506539
 27      -0.008804168853
 28      -0.000000000068
 29      -0.188755507784
 30      -0.016162654796
 31      -0.000000000396
 32       0.016393928065
 33       0.000029620930
 34       0.035868677944
 35      -0.016360458599
 36       0.000000000040
 37      -0.003818792938
 38       0.025209657440
 39      -0.064613597014
 40      -0.020484265378
 41       0.004714572172
 42      -0.006433054383
 43      -0.004593532201
 44      -0.064613597736
 45      -0.020484264563
 46      -0.004714572216
 47      -0.006433051116
 48      -0.004593529163
 Sym=     1a
 Ene= -7.64127119319119E-01
 Spin= Alpha
 Occup= 1.000000
  1       0.000000000003
  2       0.000000000315
  3      -0.000000000968
  4      -0.380610985574
  5       0.000000009201
  6       0.000000000104
  7      -0.155541868035
  8       0.000000000363
  9      -0.000000001915
 10      -0.000000000265
 11      -0.022408229211
 12       0.000000000562
 13      -0.000000001266
 14       0.017153688018
 15      -0.000000000001
 16      -0.000000001533
 17      -0.000000003725
 18       0.436542814209
 19      -0.000000006044
 20       0.000000002622
 21       0.276013890944
 22      -0.000000002767
 23       0.000000001708
 24      -0.000000000026
 25      -0.003125413444
 26       0.000000000094
 27      -0.000000000260
 28      -0.009091351579
 29       0.000000007570
 30       0.000000004369
 31      -0.011439253305
 32      -0.000000000374
 33       0.000000000219
 34       0.000000003308
 35       0.000000000812
 36       0.017306836351
 37       0.000000000479
 38      -0.000000000032
 39      -0.304809655180
 40      -0.072487417400
 41       0.008144157208
 42      -0.012182163281
 43       0.009270932389
 44       0.304809647812
 45       0.072487413688
 46       0.008144155839
 47       0.012182168878
 48      -0.009270928519
 Sym=     1a
 Ene= -7.55726456685926E-01
 Spin= Alpha
 Occup= 1.000000
  1      -0.002698374145
  2      -0.030055853251
  3      -0.006503754475
  4      -0.000000007839
  5      -0.434602302566
  6       0.006895993173
  7      -0.000000003337
  8      -0.184232830321
  9      -0.025868289662
 10      -0.004815949876
 11      -0.000000001603
 12      -0.017500777306
 13       0.012719547667
 14       0.000000000308
 15       0.000978892650
 16       0.069990309476
 17       0.134649275892
 18       0.000000009410
 19       0.275865995381
 20      -0.085153509904
 21       0.000000005670
 22       0.147629511796
 23      -0.070956150695
 24       0.000344892926
 25      -0.000000000105
 26      -0.005803588515
 27       0.010650323131
 28      -0.000000000145
 29      -0.346458110869
 30      -0.073312038661
 31      -0.000000000017
 32       0.015043610044
 33       0.011915227607
 34      -0.170045659598
 35      -0.035202149553
 36       0.000000000276
 37      -0.012813435239
 38      -0.008173078400
 39       0.181781526780
 40       0.050516200702
 41      -0.013003471393
 42      -0.007882508544
 43      -0.005247444262
 44       0.181781540182
 45       0.050516203213
 46       0.013003471520
 47      -0.007882510754
 48      -0.005247446837
 Sym=     1a
 Ene= -1.30168610410694E-01
 Spin= Alpha
 Occup= 0.000000
  1       0.006029584459
  2      -0.017240386493
  3      -0.381243442972
  4      -0.000000000332
  5       0.060687856487
  6      -0.199527063957
  7      -0.000000008081
  8       0.078773028856
  9      -0.353057862941
 10      -0.029032064319
 11      -0.000000000697
 12      -0.010305730812
 13      -0.006499957938
 14       0.000000000792
 15       0.000346399027
 16      -0.179610210376
 17      -0.726803251097
 18       0.000000000592
 19       0.265571775664
 20      -0.013498046058
 21       0.000000001126
 22       0.288658861315
 23       0.029163209527
 24       0.003797517787
 25      -0.000000000102
 26       0.010747149760
 27      -0.004648391174
 28      -0.000000000039
 29       0.011058605974
 30       0.110708331749
 31       0.000000000036
 32       0.006241078953
 33      -0.011773205322
 34       0.276439538290
 35       0.945388869260
 36      -0.000000000300
 37      -0.017691689374
 38      -0.009189349610
 39       0.020148185667
 40       0.256576746567
 41       0.007692488782
 42      -0.005893428800
 43      -0.013581046607
 44       0.020148179049
 45       0.256576739262
 46      -0.007692489538
 47      -0.005893429659
 48      -0.013581046432
 Sym=     1a
 Ene= -5.06987632865252E-02
 Spin= Alpha
 Occup= 0.000000
  1       0.013765615188
  2      -0.284402261646
  3      -1.878518872196
  4       0.000000044166
  5       0.078599628871
  6       0.053799580328
  7       0.000000114983
  8       0.179262113667
  9      -0.016452963959
 10       0.015433425122
 11      -0.000000001782
 12      -0.005152338273
 13       0.009675786161
 14       0.000000001635
 15      -0.002474482386
 16       0.081730156338
 17       0.382018925029
 18      -0.000000004750
 19      -0.081463084756
 20       0.166465606293
 21      -0.000000013082
 22      -0.089911344821
 23       0.224602639546
 24      -0.015520326107
 25       0.000000001425
 26      -0.001696143993
 27       0.003046030889
 28       0.000000000617
 29       0.039014538551
 30       0.534567555273
 31       0.000000000536
 32      -0.000689926753
 33       0.009313444518
 34      -0.055680785855
 35      -0.219623320347
 36      -0.000000001936
 37      -0.000978731223
 38       0.014805391363
 39       0.095129261133
 40       0.995431223438
 41       0.009835102316
 42      -0.001088807194
 43       0.013202481581
 44       0.095129272991
 45       0.995431555831
 46      -0.009835101951
 47      -0.001088808543
 48       0.013202481076
 Sym=     1a
 Ene= -1.90928280728813E-02
 Spin= Alpha
 Occup= 0.000000
  1      -0.001207243474
  2       0.033458516064
  3       0.039654761255
  4       0.000000090380
  5      -0.157822919465
  6      -0.398304406265
  7       0.000000233527
  8      -0.392440487210
  9      -1.092537029639
 10      -0.038011007802
 11      -0.000000005601
 12       0.030518266244
 13      -0.007937775631
 14       0.000000006673
 15       0.006960517552
 16      -0.055401998324
 17      -0.400539507347
 18      -0.000000012324
 19      -0.120254593838
 20      -0.342029399424
 21      -0.000000028902
 22      -0.135724203037
 23      -0.527192602278
 24       0.007387026241
 25       0.000000003241
 26      -0.009869867859
 27       0.003974798172
 28       0.000000001443
 29       0.142221951538
 30       1.000314829169
 31       0.000000002911
 32       0.019033885380
 33      -0.010853050962
 34      -0.197352540988
 35      -0.758483221716
 36      -0.000000003867
 37       0.017726687922
 38       0.006950600840
 39       0.017673852852
 40       0.021944330966
 41       0.007629821935
 42      -0.005978235826
 43      -0.022456256472
 44       0.017673914582
 45       0.021944947159
 46      -0.007629825508
 47      -0.005978242979
 48      -0.022456255597
 Sym=     1a
 Ene= -1.56728081485600E-02
 Spin= Alpha
 Occup= 0.000000
  1       0.000000007604
  2       0.000000028183
  3       0.000000058627
  4       0.444632224351
  5      -0.000000036077
  6       0.000000097959
  7       1.146628765945
  8      -0.000000133883
  9       0.000000297303
 10       0.000000008889
 11      -0.030603123443
 12      -0.000000002353
 13      -0.000000006260
 14       0.038140452003
 15      -0.000000004268
 16       0.000000003076
 17       0.000000095588
 18      -0.064109130123
 19       0.000000055244
 20       0.000000079629
 21      -0.145525213646
 22       0.000000076451
 23       0.000000137081
 24      -0.000000000256
 25       0.016342858360
 26       0.000000000249
 27      -0.000000002370
 28       0.007285783107
 29      -0.000000001132
 30       0.000000033309
 31       0.014905736497
 32      -0.000000005408
 33       0.000000000788
 34       0.000000060150
 35       0.000000238821
 36      -0.018658116978
 37      -0.000000006842
 38      -0.000000000141
 39      -0.160255351631
 40      -1.496094259876
 41      -0.012173293356
 42       0.019776822496
 43      -0.004379148492
 44       0.160255284276
 45       1.496093813101
 46      -0.012173277619
 47      -0.019776820299
 48       0.004379155026
 Sym=     1a
 Ene= -2.84051678948247E-03
 Spin= Alpha
 Occup= 0.000000
  1      -0.003450766896
  2      -0.083748610618
  3      -0.395391296331
  4      -0.000000077532
  5      -0.372086066280
  6       0.161615703210
  7      -0.000000196934
  8      -1.096287362703
  9       0.380335507106
 10       0.022949566894
 11       0.000000005824
 12       0.030565669489
 13      -0.051131377124
 14      -0.000000007891
 15      -0.001949057660
 16       0.036212780495
 17       0.194485822023
 18       0.000000011978
 19       0.127469312931
 20       0.167367000500
 21       0.000000026105
 22       0.234444459817
 23       0.272193714843
 24      -0.006697206411
 25      -0.000000003019
 26      -0.013800486862
 27      -0.004459529268
 28      -0.000000001257
 29       0.179363443932
 30       1.593982455656
 31      -0.000000002686
 32       0.013115711420
 33       0.012593950878
 34       0.072501614390
 35       0.358827960536
 36       0.000000003232
 37      -0.010575269026
 38       0.024640115405
 39      -0.133951738753
 40      -0.728454886992
 41      -0.023460773286
 42      -0.007864948973
 43       0.009445344283
 44      -0.133951811400
 45      -0.728455374697
 46       0.023460779083
 47      -0.007864941282
 48       0.009445341410
 Sym=     1a
 Ene= 2.69609950585901E-01
 Spin= Alpha
 Occup= 0.000000
  1      -0.053538259192
  2      -0.152309406097
  3       0.195966817963
  4      -0.000000020171
  5      -0.238673568447
  6       0.245783471120
  7       0.000000104651
  8       0.793087438582
  9      -0.416784214586
 10       0.023677577708
 11      -0.000000005704
 12      -0.103172249367
 13       0.146694135161
 14       0.000000016763
 15      -0.000589710920
 16      -0.035601697658
 17      -0.238385958284
 18      -0.000000022846
 19      -0.014561515580
 20       0.172269247376
 21      -0.000000011035
 22      -0.091226293778
 23      -0.067084208767
 24      -0.034280097763
 25       0.000000001410
 26       0.028995512363
 27      -0.020917908343
 28       0.000000001013
 29      -0.618583826340
 30       0.428411002924
 31       0.000000006852
 32      -0.025925875525
 33      -0.006210943930
 34       0.387973006648
 35      -0.240810653210
 36      -0.000000000510
 37      -0.038837417263
 38      -0.054048247208
 39       0.417148533829
 40      -0.229423024931
 41       0.036033262230
 42       0.045143313575
 43       0.021042716913
 44       0.417148672448
 45      -0.229423077085
 46      -0.036033260868
 47       0.045143305104
 48       0.021042720348
 Sym=     1a
 Ene= 2.77338298584357E-01
 Spin= Alpha
 Occup= 0.000000
  1      -0.000000014430
  2      -0.000000033962
  3       0.000000067150
  4      -0.213452092102
  5       0.000000014684
  6      -0.000000001310
  7       1.028401087093
  8      -0.000000071818
  9      -0.000000002532
 10       0.000000001229
 11      -0.058086967780
 12       0.000000014962
 13      -0.000000020591
 14       0.173335953034
 15       0.000000003590
 16       0.000000011258
 17      -0.000000013299
 18      -0.225627425939
 19       0.000000001700
 20      -0.000000004343
 21      -0.097282270478
 22       0.000000011963
 23      -0.000000010702
 24      -0.000000000136
 25       0.014478310806
 26      -0.000000003725
 27       0.000000002332
 28       0.009576643673
 29       0.000000076644
 30      -0.000000069509
 31       0.068873036133
 32       0.000000009291
 33       0.000000004858
 34      -0.000000035732
 35       0.000000007291
 36      -0.002201523776
 37       0.000000002532
 38       0.000000012117
 39      -0.677397637254
 40       0.264063034391
 41       0.006511996203
 42       0.045380744555
 43      -0.017263772410
 44       0.677397543152
 45      -0.264062983445
 46       0.006512001860
 47      -0.045380759456
 48       0.017263771039
 Sym=     1a
 Ene= 3.04101283596953E-01
 Spin= Alpha
 Occup= 0.000000
  1       0.168099308798
  2       0.426312054772
  3      -0.615659548379
  4      -0.000000023966
  5      -0.124863709463
  6      -0.800883791438
  7       0.000000060659
  8       0.505250102936
  9       1.455427278922
 10      -0.067485222830
 11       0.000000000635
 12      -0.021768824304
 13       0.066185821671
 14       0.000000002640
 15      -0.061204630873
 16      -0.141920431992
 17       0.682708197323
 18      -0.000000007063
 19      -0.021818985052
 20      -0.184873790746
 21      -0.000000005181
 22      -0.159806065000
 23       0.183857102352
 24       0.077982046614
 25       0.000000000018
 26       0.002090754019
 27       0.004092377198
 28       0.000000000328
 29      -0.370390045057
 30      -0.005260403021
 31       0.000000001678
 32       0.008857059476
 33      -0.007955691125
 34      -0.242152307553
 35       0.638773183532
 36       0.000000000563
 37       0.025316921752
 38      -0.124330226556
 39       0.019673176543
 40      -0.068295222523
 41       0.020491669737
 42       0.013746591812
 43      -0.022197699152
 44       0.019673212465
 45      -0.068295205818
 46      -0.020491664060
 47       0.013746592836
 48      -0.022197700203
 Sym=     1a
 Ene= 3.57294679302062E-01
 Spin= Alpha
 Occup= 0.000000
  1      -0.014978697813
  2      -0.018571449388
  3       0.089149392723
  4      -0.000000012974
  5       0.318030634023
  6      -0.267641820179
  7       0.000000027520
  8      -0.982240693427
  9       0.212124247537
 10      -0.106222395035
 11       0.000000002371
 12      -0.118063553443
 13      -0.026268928784
 14      -0.000000001886
 15      -0.044099465920
 16      -0.126709352343
 17       0.396632911894
 18      -0.000000001780
 19       0.335603485675
 20      -0.118320010686
 21      -0.000000001763
 22       0.102429760010
 23       0.164318942160
 24       0.004647949487
 25      -0.000000000216
 26       0.057548983987
 27      -0.075606878017
 28       0.000000000076
 29       0.077618704167
 30       0.565629641778
 31       0.000000000147
 32      -0.018983035249
 33      -0.053125881819
 34       1.047986621438
 35      -1.107403144516
 36       0.000000000804
 37      -0.158711890788
 38      -0.056125113499
 39       0.011522255890
 40      -0.296846083083
 41       0.039246427797
 42      -0.035039384789
 43       0.027170943574
 44       0.011522261323
 45      -0.296846059880
 46      -0.039246423162
 47      -0.035039382263
 48       0.027170941265
 Sym=     1a
 Ene= 4.56561264225884E-01
 Spin= Alpha
 Occup= 0.000000
  1      -0.000000038276
  2      -0.000000123522
  3       0.000000180934
  4       0.862634669986
  5       0.000000000267
  6      -0.000000062805
  7      -2.074988058716
  8       0.000000002025
  9       0.000000126108
 10      -0.000000028089
 11      -0.196993155221
 12       0.000000005043
 13       0.000000002224
 14       0.180385274884
 15       0.000000008863
 16       0.000000031832
 17       0.000000027988
 18       0.004263242066
 19       0.000000008380
 20       0.000000022057
 21       0.157891507373
 22      -0.000000013790
 23       0.000000027011
 24       0.000000003324
 25       0.024348969032
 26      -0.000000001371
 27       0.000000001957
 28      -0.007674389180
 29       0.000000125999
 30      -0.000000128418
 31       0.026282625650
 32       0.000000031748
 33       0.000000009524
 34      -0.000000033400
 35       0.000000085624
 36      -0.006460849853
 37       0.000000004961
 38      -0.000000007842
 39      -0.269901854456
 40       1.751071581674
 41      -0.140544847253
 42       0.090692607154
 43      -0.079186680610
 44       0.269902111013
 45      -1.751071887044
 46      -0.140544904967
 47      -0.090692639763
 48       0.079186683279
 Sym=     1a
 Ene= 4.60759882600517E-01
 Spin= Alpha
 Occup= 0.000000
  1      -0.123878136453
  2      -0.449431131558
  3       0.547564806036
  4      -0.000000151440
  5       0.378404216683
  6      -0.172824090949
  7       0.000000363795
  8      -0.861033193167
  9       0.385594775770
 10      -0.111130986011
 11       0.000000034253
 12      -0.052814220719
 13       0.112650157987
 14      -0.000000030679
 15       0.054218324030
 16       0.185078628035
 17       0.037844958987
 18      -0.000000000031
 19      -0.081081312855
 20       0.105868210902
 21      -0.000000027820
 22       0.076199535281
 23       0.113049205799
 24       0.017051989541
 25      -0.000000004290
 26      -0.010904268347
 27       0.027251540576
 28       0.000000001463
 29       0.432253666105
 30       0.351309891697
 31      -0.000000003899
 32       0.038147513977
 33      -0.016560924452
 34      -0.360368036231
 35       0.571515797186
 36       0.000000001172
 37       0.072543421825
 38      -0.009572406566
 39       0.666830795637
 40      -1.069713597275
 41       0.156937523514
 42      -0.073905347061
 43       0.016271673075
 44       0.666830695885
 45      -1.069712975471
 46      -0.156937475304
 47      -0.073905315904
 48       0.016271646003
 Sym=     1a
 Ene= 4.82157419950567E-01
 Spin= Alpha
 Occup= 0.000000
  1       0.080461910838
  2       0.273877188616
  3      -0.375793265634
  4       0.000000078667
  5       0.689183108071
  6       0.151231126822
  7      -0.000000196267
  8      -1.631572337733
  9      -0.280443590764
 10       0.069940295242
 11      -0.000000020852
 12      -0.151452831503
 13       0.168559779709
 14       0.000000021447
 15       0.011103483683
 16       0.006992821758
 17      -0.217568532935
 18      -0.000000005356
 19      -0.219410317016
 20      -0.101130666518
 21       0.000000018047
 22       0.331760930846
 23      -0.017647995094
 24       0.006675616630
 25       0.000000002413
 26      -0.002558327109
 27       0.024448268428
 28      -0.000000000627
 29      -0.642913389979
 30       1.980494025347
 31       0.000000004251
 32      -0.220910478084
 33      -0.114798643065
 34      -0.194968997203
 35       0.144011927036
 36      -0.000000000481
 37       0.093008641075
 38       0.054581937249