[Molden Format]
[Title]
 Molden file created by orca_2mkl for BaseName=MeOH_n

[Atoms] AU
C    1   6          0.0000000000        -0.0278298078         1.3522902891 
O    2   8          0.0000000000         0.1314351769        -1.2852857027 
H    3   1          0.0000000000         1.9110314733         2.1498662115 
H    4   1          0.0000000000        -1.6374837888        -1.9077845458 
H    5   1          1.7293239120        -1.0141188842         2.0226592968 
H    6   1         -1.7293239120        -1.0141188842         2.0226592968 
[GTO]
  1 0
s   8 1.0 
     6665.0000000000         0.3635842998
     1000.0000000000         0.6749857928
      228.0000000000         1.1316199410
       64.7100000000         1.6530092121
       21.0600000000         1.9238206437
        7.4950000000         1.4472783162
        2.7970000000         0.4391631292
        0.5215000000         0.0066458037
s   8 1.0 
     6665.0000000000        -0.1541797483
     1000.0000000000        -0.2937853735
      228.0000000000        -0.4808958038
       64.7100000000        -0.7614343161
       21.0600000000        -0.9001038923
        7.4950000000        -0.9726113518
        2.7970000000        -0.3940419460
        0.5215000000         0.4783944249
s   1 1.0 
        0.1596000000         0.1799636353
p   3 1.0 
        9.4390000000         1.3437371095
        2.0020000000         1.0631680879
        0.5456000000         0.5082318338
p   1 1.0 
        0.1517000000         0.1349497436
d   1 1.0 
        0.5500000000         1.0013935509

  2 0
s   8 1.0 
    11720.0000000000         0.5697017158
     1759.0000000000         1.0583521000
      400.8000000000         1.7762810558
      113.7000000000         2.5994118899
       37.0300000000         3.0268459958
       13.2700000000         2.2223943344
        5.0250000000         0.6477954310
        1.0130000000         0.0111186960
s   8 1.0 
    11720.0000000000        -0.2524342625
     1759.0000000000        -0.4804910908
      400.8000000000        -0.7862996613
      113.7000000000        -1.2541699039
       37.0300000000        -1.4912179216
       13.2700000000        -1.6108317779
        5.0250000000        -0.5497983753
        1.0130000000         0.7882822080
s   1 1.0 
        0.3023000000         0.2905619240
p   3 1.0 
       17.7000000000         3.2436193456
        3.8540000000         2.5672796523
        1.0460000000         1.1176693232
p   1 1.0 
        0.2753000000         0.2842482844
d   1 1.0 
        1.1850000000         3.8368709885

  3 0
s   3 1.0 
       13.0100000000         0.1635484228
        1.9620000000         0.2774175417
        0.4446000000         0.3157493070
s   1 1.0 
        0.1220000000         0.1471227944
p   1 1.0 
        0.7270000000         0.9568813751

  4 0
s   3 1.0 
       13.0100000000         0.1635484228
        1.9620000000         0.2774175417
        0.4446000000         0.3157493070
s   1 1.0 
        0.1220000000         0.1471227944
p   1 1.0 
        0.7270000000         0.9568813751

  5 0
s   3 1.0 
       13.0100000000         0.1635484228
        1.9620000000         0.2774175417
        0.4446000000         0.3157493070
s   1 1.0 
        0.1220000000         0.1471227944
p   1 1.0 
        0.7270000000         0.9568813751

  6 0
s   3 1.0 
       13.0100000000         0.1635484228
        1.9620000000         0.2774175417
        0.4446000000         0.3157493070
s   1 1.0 
        0.1220000000         0.1471227944
p   1 1.0 
        0.7270000000         0.9568813751

[5D]
[7F]
[9G]
[MO]
 Sym=     1a
 Ene= -1.92350259447217E+01
 Spin= Alpha
 Occup= 1.000000
  1      -0.000104185605
  2      -0.000147888710
  3       0.005544805382
  4      -0.000000000010
  5       0.000007032796
  6      -0.000513008015
  7       0.000000000009
  8       0.000232330204
  9      -0.002432620729
 10      -0.000227298819
 11       0.000000000001
 12       0.000147966903
 13       0.000019059484
 14       0.000000000058
 15       1.003411554901
 16       0.007754455347
 17      -0.010873757644
 18      -0.000000000001
 19      -0.001381641605
 20       0.000996651585
 21      -0.000000000025
 22       0.000781294671
 23      -0.002892774027
 24      -0.000220391033
 25       0.000000000000
 26       0.000200669597
 27      -0.000139438456
 28      -0.000000000001
 29      -0.000700721977
 30      -0.000411001168
 31      -0.000000000028
 32       0.000129882392
 33       0.000271358885
 34       0.000173935164
 35       0.000201010104
 36       0.000000000001
 37      -0.000947148449
 38      -0.000114171002
 39      -0.000622124689
 40      -0.000261611393
 41       0.000057385945
 42      -0.000076213942
 43       0.000270438198
 44      -0.000622124636
 45      -0.000261611505
 46      -0.000057386063
 47      -0.000076213925
 48       0.000270438300
 Sym=     1a
 Ene= -1.03277474384898E+01
 Spin= Alpha
 Occup= 1.000000
  1       1.005597563602
  2       0.014113599759
  3      -0.012385910719
  4       0.000000000071
  5      -0.000012577524
  6      -0.000085841777
  7      -0.000000000503
  8       0.000190540824
  9      -0.000820766303
 10      -0.000266763253
 11      -0.000000000030
 12       0.000113120415
 13       0.000067866752
 14       0.000000000053
 15       0.000341506077
 16       0.000611830464
 17      -0.001316094047
 18       0.000000000010
 19       0.000037541734
 20      -0.000078925049
 21       0.000000000045
 22       0.000721511154
 23      -0.001336770835
 24      -0.000754674120
 25       0.000000000003
 26       0.000098269675
 27       0.000194366382
 28       0.000000000001
 29      -0.001229353716
 30       0.002118320723
 31      -0.000000000001
 32       0.001450870216
 33       0.000649752602
 34       0.000673702071
 35       0.000423090466
 36       0.000000000007
 37       0.000136606701
 38       0.000606337755
 39      -0.001166667631
 40       0.002311768889
 41       0.001238391902
 42      -0.000764397452
 43       0.000545648403
 44      -0.001166667628
 45       0.002311767878
 46      -0.001238391994
 47      -0.000764397467
 48       0.000545648452
 Sym=     1a
 Ene= -1.12748933438282E+00
 Spin= Alpha
 Occup= 1.000000
  1       0.011154587943
  2      -0.150909123199
  3      -0.057233626562
  4       0.000000000216
  5       0.000753747582
  6       0.119208160046
  7      -0.000000000920
  8       0.006444569002
  9       0.021209841359
 10      -0.029888876916
 11       0.000000000219
 12      -0.003113247199
 13       0.000660880766
 14       0.000000000123
 15       0.008959402286
 16      -0.417182098203
 17      -0.389246680631
 18       0.000000000560
 19       0.079856490585
 20      -0.075259062904
 21      -0.000000000061
 22       0.003723353804
 23      -0.034049425571
 24      -0.007406551624
 25       0.000000000196
 26       0.000693058546
 27       0.004939717135
 28      -0.000000000040
 29      -0.035912894551
 30      -0.005799930511
 31      -0.000000000257
 32       0.005645472354
 33       0.005263739720
 34      -0.167778435128
 35      -0.009314167888
 36       0.000000000161
 37      -0.030496047500
 38      -0.014816614448
 39      -0.038337487156
 40      -0.003309501409
 41       0.006824014184
 42      -0.003915822923
 43       0.004839386396
 44      -0.038337486495
 45      -0.003309504307
 46      -0.006824014440
 47      -0.003915821839
 48       0.004839387362
 Sym=     1a
 Ene= -7.80022206063989E-01
 Spin= Alpha
 Occup= 1.000000
  1      -0.013817052551
  2       0.356976326125
  3       0.220639313915
  4      -0.000000000359
  5       0.018052977537
  6       0.056953265123
  7      -0.000000001786
  8      -0.001828836939
  9       0.029655047315
 10      -0.001074832480
 11       0.000000000444
 12      -0.004633386779
 13      -0.001648215290
 14       0.000000000150
 15      -0.002503019334
 16      -0.146981819553
 17      -0.142389119678
 18       0.000000000383
 19       0.093481225867
 20       0.178280747644
 21       0.000000000534
 22       0.017798336812
 23       0.094444063550
 24       0.011330982311
 25       0.000000000031
 26      -0.004635040143
 27       0.003814584080
 28      -0.000000000040
 29       0.188756834559
 30       0.033362226942
 31      -0.000000000344
 32      -0.021516689695
 33      -0.005838041159
 34      -0.166407616408
 35      -0.027705905435
 36      -0.000000000169
 37      -0.022941629350
 38      -0.004416281516
 39       0.173652063079
 40       0.027316379584
 41      -0.017306356988
 42       0.010845723438
 43      -0.004729869505
 44       0.173652062724
 45       0.027316377230
 46       0.017306356918
 47       0.010845724392
 48      -0.004729868713
 Sym=     1a
 Ene= -5.96931719901401E-01
 Spin= Alpha
 Occup= 1.000000
  1       0.004391823565
  2      -0.044994770138
  3      -0.033204051869
  4      -0.000000000062
  5       0.214761691962
  6      -0.220383172393
  7      -0.000000002205
  8       0.100775901784
  9      -0.082969311182
 10       0.023634471867
 11      -0.000000001535
 12      -0.021210067010
 13      -0.004450463595
 14      -0.000000000298
 15       0.000962229656
 16       0.087851289433
 17       0.147769532807
 18       0.000000000444
 19       0.339934949245
 20       0.238833866376
 21       0.000000000236
 22       0.159687838769
 23       0.095212989490
 24       0.012693163092
 25      -0.000000000273
 26       0.002774827854
 27       0.009914896645
 28       0.000000000249
 29       0.043433704717
 30       0.004900070807
 31       0.000000000423
 32      -0.000185500025
 33      -0.005062891791
 34      -0.291041234403
 35      -0.081365583343
 36      -0.000000000087
 37      -0.025252027638
 38      -0.010534587864
 39      -0.151999197944
 40      -0.040250028959
 41       0.011984531260
 42      -0.000561880068
 43      -0.000888521941
 44      -0.151999199664
 45      -0.040250030528
 46      -0.011984531039
 47      -0.000561883262
 48      -0.000888525205
 Sym=     1a
 Ene= -5.36224751605355E-01
 Spin= Alpha
 Occup= 1.000000
  1       0.000000000086
  2       0.000000000396
  3       0.000000003164
  4      -0.406520650728
  5       0.000000001238
  6       0.000000001799
  7      -0.162444436330
  8       0.000000001483
  9       0.000000002798
 10      -0.000000000039
 11       0.009552086055
 12       0.000000000351
 13       0.000000000684
 14       0.013255314580
 15      -0.000000000241
 16      -0.000000000144
 17       0.000000002002
 18      -0.273832150657
 19       0.000000000986
 20      -0.000000001999
 21      -0.178865583102
 22      -0.000000000246
 23      -0.000000001994
 24      -0.000000000118
 25      -0.013536930115
 26       0.000000000069
 27      -0.000000000176
 28       0.007687161130
 29       0.000000001344
 30       0.000000000118
 31      -0.013477297385
 32      -0.000000000402
 33      -0.000000000031
 34       0.000000000022
 35       0.000000000559
 36      -0.013777504286
 37       0.000000000054
 38      -0.000000000297
 39      -0.259613299750
 40      -0.099146978446
 41       0.006635257297
 42      -0.010496179173
 43       0.006217276239
 44       0.259613298295
 45       0.099146974018
 46       0.006635257504
 47       0.010496175593
 48      -0.006217278983
 Sym=     1a
 Ene= -5.17118488121610E-01
 Spin= Alpha
 Occup= 1.000000
  1       0.003212876211
  2       0.013040081600
  3       0.005766485612
  4      -0.000000002536
  5      -0.282234324895
  6      -0.290288855152
  7      -0.000000001257
  8      -0.141573475194
  9      -0.106132451510
 10       0.025832705652
 11       0.000000000657
 12       0.001122972425
 13       0.007612012632
 14       0.000000000450
 15       0.003502570343
 16      -0.065776287589
 17      -0.132874150251
 18      -0.000000002428
 19      -0.114244811234
 20       0.362205525960
 21      -0.000000002014
 22      -0.088239516960
 23       0.207081379769
 24       0.008086568890
 25       0.000000000121
 26      -0.018620446894
 27      -0.000950349689
 28       0.000000000086
 29      -0.297220559194
 30      -0.101327975103
 31      -0.000000000429
 32       0.015368947928
 33       0.001097985419
 34      -0.064714508523
 35      -0.053201091099
 36      -0.000000000066
 37      -0.012189883798
 38       0.018058779037
 39       0.034642545264
 40       0.006392615935
 41      -0.002546399710
 42      -0.006694587418
 43      -0.007433962756
 44       0.034642548838
 45       0.006392612770
 46       0.002546399610
 47      -0.006694585111
 48      -0.007433960547
 Sym=     1a
 Ene= -4.19648333133827E-01
 Spin= Alpha
 Occup= 1.000000
  1      -0.004290906923
  2      -0.030829420062
  3       0.014119030606
  4       0.000000000520
  5      -0.282463995837
  6       0.117071361824
  7      -0.000000001084
  8      -0.079736260462
  9       0.007743921086
 10      -0.009107645629
 11      -0.000000001747
 12      -0.030936621751
 13       0.011973627717
 14      -0.000000000090
 15      -0.003456968123
 16       0.119136035033
 17       0.248911242992
 18      -0.000000003112
 19       0.389512796047
 20      -0.206144830021
 21      -0.000000002158
 22       0.250982492270
 23      -0.172085486479
 24       0.000101366490
 25      -0.000000000266
 26       0.003871684770
 27       0.011686237448
 28       0.000000000128
 29      -0.250379636091
 30      -0.128821707544
 31       0.000000000414
 32       0.004777249144
 33       0.009036934208
 34      -0.216675139361
 35      -0.060609524395
 36      -0.000000000447
 37      -0.006631184185
 38      -0.017128580647
 39       0.159166968673
 40       0.100050646634
 41      -0.010191797712
 42      -0.006161921146
 43       0.000848503281
 44       0.159166963807
 45       0.100050646820
 46       0.010191797049
 47      -0.006161926969
 48       0.000848498799
 Sym=     1a
 Ene= -3.56865527719641E-01
 Spin= Alpha
 Occup= 1.000000
  1       0.000000000254
  2       0.000000000277
  3      -0.000000003178
  4      -0.191207103422
  5      -0.000000000976
  6       0.000000000455
  7      -0.035832556402
  8      -0.000000005224
  9      -0.000000004932
 10      -0.000000000311
 11      -0.039770979088
 12      -0.000000000018
 13      -0.000000001734
 14       0.010758724831
 15       0.000000000177
 16       0.000000001583
 17       0.000000001473
 18       0.578206246879
 19       0.000000000859
 20      -0.000000000657
 21       0.447800275704
 22      -0.000000000023
 23      -0.000000001545
 24      -0.000000000036
 25       0.005632984943
 26       0.000000000197
 27       0.000000000173
 28      -0.012900717973
 29      -0.000000001877
 30       0.000000002654
 31      -0.008657587154
 32      -0.000000000256
 33       0.000000000621
 34      -0.000000002108
 35      -0.000000005112
 36       0.029784150296
 37       0.000000000177
 38      -0.000000000533
 39      -0.209937473674
 40      -0.135308655629
 41       0.002645165701
 42      -0.005724790843
 43       0.001709323158
 44       0.209937476153
 45       0.135308658472
 46       0.002645165024
 47       0.005724799897
 48      -0.001709317141
 Sym=     1a
 Ene= 1.44949982312324E-01
 Spin= Alpha
 Occup= 0.000000
  1      -0.040794847551
  2       0.052401243187
  3       1.192529131750
  4      -0.000000015341
  5      -0.069518128261
  6       0.172007219549
  7      -0.000000071210
  8      -0.170694936572
  9       0.319823407765
 10       0.018164893460
 11      -0.000000000928
 12       0.007519956971
 13       0.004433023861
 14       0.000000001892
 15      -0.014917374123
 16       0.107476528480
 17       0.581248177661
 18       0.000000002242
 19      -0.197773141235
 20      -0.043887804762
 21       0.000000007733
 22      -0.269441170890
 23      -0.136077482268
 24      -0.001194562988
 25      -0.000000000346
 26      -0.003923240701
 27      -0.005265244095
 28      -0.000000000216
 29      -0.017694097894
 30      -0.304782220631
 31       0.000000000135
 32      -0.004296946213
 33       0.011382847305
 34      -0.125926939755
 35      -0.925669155777
 36       0.000000000621
 37       0.002949939877
 38       0.002837342953
 39      -0.038381231370
 40      -0.639778552948
 41      -0.001541734286
 42       0.003213485009
 43       0.010491479202
 44      -0.038381231849
 45      -0.639778741505
 46       0.001541731396
 47       0.003213483752
 48       0.010491481155
 Sym=     1a
 Ene= 1.86806118527977E-01
 Spin= Alpha
 Occup= 0.000000
  1      -0.040594556549
  2       0.164825964521
  3       1.684312856450
  4       0.000000010499
  5       0.063915908589
  6       0.042830579654
  7       0.000000050185
  8       0.218013188005
  9       0.227053948807
 10      -0.014601783737
 11      -0.000000000426
 12      -0.006383983006
 13      -0.004566487958
 14       0.000000000067
 15       0.016944934668
 16      -0.078700121841
 17      -0.535325036992
 18       0.000000000651
 19       0.160250183422
 20      -0.043992190558
 21      -0.000000009568
 22       0.222552814112
 23      -0.039083504018
 24       0.008300713341
 25       0.000000000259
 26       0.005535090636
 27       0.003856752317
 28       0.000000000194
 29      -0.056034172539
 30      -1.126795664791
 31      -0.000000000334
 32       0.003963268542
 33      -0.007191554011
 34       0.110920750744
 35       0.822260198081
 36       0.000000000129
 37       0.003524770487
 38      -0.012755296264
 39      -0.024135996490
 40      -0.702134408511
 41       0.000454384411
 42      -0.003287977395
 43      -0.007152781493
 44      -0.024135986105
 45      -0.702134299747
 46      -0.000454383758
 47      -0.003287976950
 48      -0.007152782831
 Sym=     1a
 Ene= 2.26866125894505E-01
 Spin= Alpha
 Occup= 0.000000
  1       0.000000047486
  2      -0.000000060140
  3      -0.000001045128
  4       0.403554773649
  5       0.000001502499
  6       0.000000280702
  7       1.268886053998
  8       0.000004941712
  9       0.000001153350
 10       0.000000023686
 11       0.000001740885
 12      -0.000000024308
 13       0.000000045317
 14       0.005051009613
 15      -0.000000039072
 16       0.000000118444
 17       0.000001136994
 18      -0.068201099035
 19      -0.000000403279
 20       0.000000256765
 21      -0.179098806687
 22      -0.000000871585
 23       0.000000441753
 24      -0.000000002672
 25       0.009950585423
 26       0.000000040123
 27      -0.000000003266
 28       0.005791188986
 29      -0.000000440907
 30      -0.000007286760
 31       0.009429481024
 32      -0.000000010425
 33       0.000000024033
 34       0.000000004199
 35      -0.000000588875
 36      -0.014534798762
 37      -0.000000012881
 38      -0.000000032257
 39      -0.063395535279
 40      -1.668582743521
 41       0.003437995979
 42       0.004700161265
 43       0.003276053574
 44       0.063395963597
 45       1.668590586577
 46       0.003437975537
 47      -0.004700093287
 48      -0.003276034455
 Sym=     1a
 Ene= 2.28194279038818E-01
 Spin= Alpha
 Occup= 0.000000
  1       0.009287859062
  2      -0.018559502479
  3      -0.237853639218
  4      -0.000001640661
  5       0.375371775474
  6       0.064887532013
  7      -0.000005097342
  8       1.225774856883
  9       0.268169367093
 10       0.005650950721
 11       0.000000001861
 12      -0.006957213402
 13       0.011960256145
 14      -0.000000022795
 15      -0.009086527764
 16       0.026629894255
 17       0.261073267539
 18       0.000000275285
 19      -0.097151370179
 20       0.061108097627
 21       0.000000717887
 22      -0.213656483747
 23       0.099389671377
 24      -0.000885213684
 25      -0.000000040591
 26       0.010289528612
 27      -0.000893716359
 28      -0.000000023290
 29      -0.111473437143
 30      -1.807968851759
 31      -0.000000039928
 32      -0.002925655396
 33       0.005571830774
 34       0.002739294817
 35      -0.139338044923
 36       0.000000059370
 37      -0.004145728407
 38      -0.008439240853
 39       0.052956326780
 40       0.971719188594
 41       0.003506743745
 42       0.008301371820
 43       0.002545815563
 44       0.052955810401
 45       0.971705751019
 46      -0.003506768141
 47       0.008301414198
 48       0.002545840137
 Sym=     1a
 Ene= 2.93249805092421E-01
 Spin= Alpha
 Occup= 0.000000
  1       0.019680271733
  2      -0.074511961217
  3      -0.717882315571
  4      -0.000000019824
  5      -0.048514612852
  6       0.284967744907
  7      -0.000000043743
  8      -0.272578474111
  9       1.389705884328
 10       0.031149550486
 11       0.000000000659
 12      -0.006178192958
 13      -0.009287391198
 14      -0.000000001748
 15      -0.025260097229
 16       0.067356441132
 17       0.734063067674
 18       0.000000003335
 19       0.115177118336
 20       0.353010100201
 21       0.000000007291
 22       0.211703667223
 23       0.739592458987
 24       0.003463232087
 25      -0.000000000669
 26      -0.003712294498
 27      -0.002373724413
 28      -0.000000000240
 29      -0.055568483143
 30       0.175052979510
 31      -0.000000001022
 32      -0.009622145212
 33       0.013793494397
 34       0.067080675274
 35       0.831068479256
 36       0.000000000720
 37      -0.008838013614
 38       0.005218445307
 39      -0.105510723817
 40      -0.259115237387
 41      -0.012348076654
 42      -0.000755921834
 43       0.017682809262
 44      -0.105510739439
 45      -0.259115346626
 46       0.012348078421
 47      -0.000755919651
 48       0.017682808346
 Sym=     1a
 Ene= 5.46678876813086E-01
 Spin= Alpha
 Occup= 0.000000
  1       0.011199901773
  2       0.035240617429
  3      -0.013213296556
  4      -0.000000017767
  5       0.211641347573
  6      -0.104329872635
  7       0.000000056892
  8      -1.005496297371
  9       0.046929702673
 10      -0.021831984057
 11       0.000000000011
 12       0.098118828379
 13      -0.158996349416
 14       0.000000003223
 15       0.008443840878
 16       0.051580419737
 17       0.096081060909
 18      -0.000000005255
 19       0.032785036670
 20      -0.127541192929
 21      -0.000000008184
 22       0.166851235644
 23      -0.011517131537
 24       0.017172123659
 25      -0.000000000001
 26      -0.022137056194
 27       0.013674244972
 28       0.000000000348
 29       0.783029723770
 30      -0.309246027581
 31       0.000000001966
 32       0.040659865965
 33       0.011048840085
 34      -0.241558613998
 35      -0.018259543507
 36       0.000000000244
 37       0.034510228082
 38       0.070805795087
 39      -0.398176897559
 40       0.156663266805
 41      -0.039148697319
 42      -0.048742584406
 43      -0.017349913598
 44      -0.398176855287
 45       0.156663280119
 46       0.039148700784
 47      -0.048742585197
 48      -0.017349915137
 Sym=     1a
 Ene= 5.63893552734471E-01
 Spin= Alpha
 Occup= 0.000000
  1       0.000000013578
  2       0.000000032464
  3      -0.000000061406
  4       0.214310098002
  5       0.000000009683
  6      -0.000000022990
  7      -1.202547628829
  8      -0.000000033177
  9       0.000000032013
 10      -0.000000005547
 11       0.040299862124
 12       0.000000003402
 13      -0.000000003899
 14      -0.171132033040
 15      -0.000000002507
 16      -0.000000004023
 17       0.000000030978
 18       0.187826722386
 19      -0.000000001414
 20      -0.000000015107
 21       0.206154057786
 22       0.000000001684
 23       0.000000010396
 24       0.000000003246
 25      -0.009281447144
 26      -0.000000001032
 27       0.000000000851
 28      -0.010213757308
 29       0.000000025103
 30      -0.000000001794
 31      -0.083170545715
 32      -0.000000000815
 33      -0.000000001427
 34      -0.000000019200
 35       0.000000015986
 36       0.007590031428
 37       0.000000003553
 38      -0.000000000951
 39       0.699333696389
 40      -0.099465144357
 41      -0.003296679061
 42      -0.049363248753
 43       0.011177811628
 44      -0.699333711621
 45       0.099465157014
 46      -0.003296675707
 47       0.049363247926
 48      -0.011177816228
 Sym=     1a
 Ene= 5.98596409600715E-01
 Spin= Alpha
 Occup= 0.000000
  1      -0.155903172612
  2      -0.428120953411
  3       0.381988456525
  4       0.000000015188
  5       0.086909534164
  6       0.874478194933
  7      -0.000000043058
  8      -0.409734506276
  9      -1.380230158728
 10       0.109662919375
 11       0.000000000559
 12      -0.018505849489
 13      -0.029713835024
 14      -0.000000003831
 15       0.061551260105
 16       0.148135459783
 17      -0.647680163584
 18       0.000000004084
 19       0.048673120133
 20       0.275226686226
 21       0.000000006066
 22       0.179687132679
 23      -0.085183555365
 24      -0.077470464455
 25      -0.000000000073
 26       0.009326226867
 27      -0.013653051228
 28      -0.000000000303
 29       0.215063513361
 30       0.229456343299
 31      -0.000000001764
 32      -0.027960642200
 33       0.005981376140
 34       0.408187222681
 35      -0.625341801680
 36       0.000000000174
 37      -0.049465813931
 38       0.098410895066
 39       0.055204912993
 40       0.043277349481
 41      -0.017887509778
 42      -0.001318123318
 43       0.040427568663
 44       0.055204885907
 45       0.043277336236
 46       0.017887507741
 47      -0.001318122832
 48       0.040427568434
 Sym=     1a
 Ene= 6.62369784900828E-01
 Spin= Alpha
 Occup= 0.000000
  1       0.013929410849
  2       0.011446426786
  3      -0.134019104468
  4      -0.000000030695
  5      -0.469750947066
  6       0.298605740652
  7       0.000000057132
  8       1.257187776669
  9      -0.274330935964
 10       0.123519194299
 11       0.000000005098
 12       0.161556888343
 13      -0.031385707581
 14      -0.000000007378
 15       0.046557354636
 16       0.146810338496
 17      -0.372389650682
 18       0.000000002552
 19      -0.289809045746
 20       0.117976683147
 21      -0.000000006902
 22      -0.183977107515
 23      -0.151772753794
 24      -0.007917457602
 25      -0.000000000758
 26      -0.056280399078
 27       0.060813824081
 28       0.000000000107
 29       0.028457752832
 30      -0.870924952618
 31      -0.000000002115
 32       0.057381450349
 33       0.084516109490
 34      -0.948893060780
 35       0.882928192543
 36       0.000000000770
 37       0.162249508823
 38       0.080211479636
 39      -0.058560781042
 40       0.507888929678
 41      -0.066413734298
 42       0.039499270525
 43      -0.036395404758
 44      -0.058560802043
 45       0.507889018495
 46       0.066413743735
 47       0.039499278772
 48      -0.036395409415
 Sym=     1a
 Ene= 7.30084033564669E-01
 Spin= Alpha
 Occup= 0.000000
  1       0.000000009198
  2       0.000000013952
  3      -0.000000070188
  4      -0.884499336700
  5      -0.000000134389
  6      -0.000000019649
  7       1.976297973273
  8       0.000000255924
  9       0.000000026905
 10      -0.000000016288
 11       0.193316467778
 12       0.000000015704
 13      -0.000000039517
 14      -0.207037512993
 15      -0.000000007626
 16      -0.000000021229
 17       0.000000061697
 18       0.014251648624
 19       0.000000061979
 20      -0.000000003022
 21      -0.163327049015
 22      -0.000000028364
 23       0.000000039178
 24      -0.000000001739
 25      -0.023737483570
 26       0.000000005177
 27      -0.000000010659
 28       0.005063125013
 29       0.000000080365
 30      -0.000000253273
 31      -0.036415708543
 32       0.000000036476
 33       0.000000013705
 34       0.000000148961
 35      -0.000000117882
 36       0.013017389770
 37      -0.000000030452
 38      -0.000000014521
 39       0.274648862304
 40      -1.622968122502
 41       0.150786448290
 42      -0.105459913067
 43       0.086930751664
 44      -0.274648852194
 45       1.622968375721
 46       0.150786477398
 47       0.105459913997
 48      -0.086930764988
 Sym=     1a
 Ene= 7.47510227204985E-01
 Spin= Alpha
 Occup= 0.000000
  1      -0.185472753522
  2      -0.624635344661
  3       0.755113544075
  4       0.000000039751
  5      -0.127103809823
  6      -0.200533474868
  7      -0.000000092356
  8       0.310011711560
  9       0.472222549262
 10      -0.128380559903
 11      -0.000000010297
 12       0.034595847189
 13      -0.003077508723
 14       0.000000009934
 15       0.029905277713
 16       0.132238436101
 17       0.159575265363
 18       0.000000003617
 19       0.045884761795
 20       0.152092333853
 21       0.000000003780
 22      -0.088211460377
 23       0.144544481248
 24       0.004428649103
 25       0.000000001168
 26      -0.005616087281
 27       0.002916843160
 28      -0.000000000293
 29       0.680426877463
 30      -0.876560520663
 31       0.000000000448
 32       0.183385390211
 33       0.060491801848
 34      -0.119873809228
 35       0.340910565942
 36      -0.000000000464
 37       0.005367687203
 38      -0.024839663823
 39       0.641879659554
 40      -0.544050963760
 41       0.131951287826
 42      -0.074684673323
 43       0.005679579637
 44       0.641879682858
 45      -0.544051117380
 46      -0.131951302812
 47      -0.074684682512
 48       0.005679587288
 Sym=     1a
 Ene= 7.51761707506034E-01
 Spin= Alpha
 Occup= 0.000000
  1      -0.003401788940
  2       0.027269670271
  3       0.071179705338
  4       0.000000163797
  5      -0.734737186939
  6      -0.081917342385
  7      -0.000000374180
  8       1.545495512711
  9       0.074554768998
 10      -0.014390656691
 11      -0.000000035736
 12       0.107036215366
 13      -0.216820350310
 14       0.000000036118
 15      -0.048607495950
 16      -0.151287892620
 17       0.192550814903
 18       0.000000001491
 19       0.278734530345
 20       0.001236565732
 21       0.000000028565
 22      -0.210993482030
 23      -0.009891334865
 24      -0.015209635130
 25       0.000000004363
 26       0.021697108167
 27      -0.049428319465
 28      -0.000000001056
 29       0.225222566404
 30      -1.535884346868
 31       0.000000004665
 32       0.165699112117
 33       0.087870705449
 34       0.604275972323
 35      -0.580255496492
 36      -0.000000002145
 37      -0.166892469866
 38      -0.056324719460