
                                 *****************
                                 * O   R   C   A *
                                 *****************

                                            #,                                       
                                            ###                                      
                                            ####                                     
                                            #####                                    
                                            ######                                   
                                           ########,                                 
                                     ,,################,,,,,                         
                               ,,#################################,,                 
                          ,,##########################################,,             
                       ,#########################################, ''#####,          
                    ,#############################################,,   '####,        
                  ,##################################################,,,,####,       
                ,###########''''           ''''###############################       
              ,#####''   ,,,,##########,,,,          '''####'''          '####       
            ,##' ,,,,###########################,,,                        '##       
           ' ,,###''''                  '''############,,,                           
         ,,##''                                '''############,,,,        ,,,,,,###''
      ,#''                                            '''#######################'''  
     '                                                          ''''####''''         
             ,#######,   #######,   ,#######,      ##                                
            ,#'     '#,  ##    ##  ,#'     '#,    #''#        ,####,    ,#,          
            ##       ##  ##   ,#'  ##            #'  '#       #'       ,# #          
            ##       ##  #######   ##           ,######,      #####,      #          
            '#,     ,#'  ##    ##  '#,     ,#' ,#      #,     #,   #      #          
             '#######'   ##     ##  '#######'  #'      '#     '####' #    #          



                #########################################################
                #                        -***-                          #
                #          Department of theory and spectroscopy        #
                #                                                       #
                #                      Frank Neese                      #
                #                                                       #
                #     Directorship, Architecture, Infrastructure        #
                #                    SHARK, DRIVERS                     #
                #        Core code/Algorithms in most modules           #
                #                                                       #
                #        Max Planck Institute fuer Kohlenforschung      #
                #                Kaiser Wilhelm Platz 1                 #
                #                 D-45470 Muelheim/Ruhr                 #
                #                      Germany                          #
                #                                                       #
                #                  All rights reserved                  #
                #                        -***-                          #
                #########################################################


                         Program Version 6.1.0  -  RELEASE   -
                                (GIT: $679e74b$)
                          ($2025-06-10 18:02:51 +0200$)


 With contributions from (in alphabetic order):
[Max-Planck-Institut fuer Kohlenforschung]                               
  Daniel Aravena         : Magnetic Suceptibility                        
  Michael Atanasov       : Ab Initio Ligand Field Theory (pilot matlab implementation)
  Alexander A. Auer      : GIAO ZORA, VPT2 properties, NMR spectrum      
  Ute Becker             : All parallelization in ORCA, NUMFREQ, NUMCALC 
  Giovanni Bistoni       : ED, misc. LED, open-shell LED, HFLD           
  Dmytro Bykov           : pre 5.0 version of the SCF Hessian            
  Marcos Casanova-Páez   : Triplet and SCS-CIS(D). UHF-(DLPNO)-IP/EA/STEOM-CCSD. UHF-CVS-IP/STEOM-CCSD   
  Vijay G. Chilkuri      : MRCI spin determinant printing, contributions to CSF-ICE 
  Pauline Colinet        : FMM embedding                                 
  Dipayan Datta          : RHF DLPNO-CCSD density                        
  Achintya Kumar Dutta   : EOM-CC, STEOM-CC                              
  Nicolas Foglia         : Exact transition moments, OPA infrastructure, MCD improvements    
  Dmitry Ganyushin       : Spin-Orbit,Spin-Spin,Magnetic field MRCI      
  Miquel Garcia-Rates    : C-PCM and meta-GGA Hessian, CCSD/C-PCM, Gaussian charge scheme 
  Tiago L. C. Gouveia    : GS-ROHF, GS-ROCIS                             
  Yang Guo               : DLPNO-NEVPT2, F12-NEVPT2, CIM, IAO-localization        
  Andreas Hansen         : Spin unrestricted coupled pair/coupled cluster methods 
  Ingolf Harden          : AUTO-CI MPn and infrastructure                
  Benjamin Helmich-Paris : MC-RPA, TRAH-(SCF,CASSCF), AVAS, COSX integrals, SCF dyn. polar., MC-PDFT, srDFT 
  Lee Huntington         : MR-EOM, pCC                                   
  Robert Izsak           : Overlap fitted RIJCOSX, COSX-SCS-MP3, EOM     
  Riya Kayal             : Wick's Theorem for AUTO-CI, AUTO-CI UHF-CCSDT 
  Emily Kempfer          : AUTO-CI RHF CISDT and CCSDT, approximate NEVPT4
  Christian Kollmar      : KDIIS, OOCD, Brueckner-CCSD(T), CCSD density, CASPT2, CASPT2-K, improved NEVPT2 
  Axel Koslowski         : Symmetry handling                             
  Simone Kossmann        : meta-GGA functionals, TD-DFT gradient, OOMP2, (MP2 Hessian; deprecated post 5.0) 
  Lucas Lang             : DCDCAS, Hyperfine gauge corrections, ICE-SOC+SSC
  Marvin Lechner         : AUTO-CI (C++ implementation), FIC-MRCC        
  Spencer Leger          : CASSCF response                               
  Dagmar Lenk            : GEPOL surface, SMD, ORCA-2-JSON               
  Dimitrios Liakos       : Extrapolation schemes; Compound Job, Property file
  Dimitrios Manganas     : Further ROCIS development; embedding schemes. LFT, Crystal Embedding 
  Dimitrios Pantazis     : SARC Basis sets                               
  Anastasios Papadopoulos: AUTO-CI, single reference methods and gradients 
  Taras Petrenko         : pre 6.0 DFT Hessian and TD-DFT gradient,  ECA, NRVS 
  Petra Pikulova         : Analytic Raman intensities                    
  Peter Pinski           : DLPNO-MP2, DLPNO-MP2 Gradient                 
  Shashank Vittal Rao    : ES-AILFT, MagRelax                            
  Christoph Reimann      : Effective Core Potentials                     
  Marius Retegan         : Local ZFS, SOC                                
  Christoph Riplinger    : Optimizer, TS searches, QM/MM, DLPNO-CCSD(T), (RO)-DLPNO pert. Triples 
  Michael Roemelt        : Original ROCIS implementation, recursive CI coupling coefficients
  Masaaki Saitow         : Open-shell DLPNO-CCSD energy and density      
  Barbara Sandhoefer     : DKH picture change effects                    
  Yorick L. A. Schmerwitz: GMF and freeze-and-release deltaSCF, NEB S-IDPP initial path                    
  Kantharuban Sivalingam : CASSCF convergence/infrastructure, NEVPT2, NEVPT3, NEVPT4(SD), FIC-MRCI and CEPA variants
  Bernardo de Souza      : ESD, SOC TD-DFT                               
  Georgi L. Stoychev     : AutoAux, RI-MP2 NMR, DLPNO-MP2 response, X2C  
  Van Anh Tran           : RI-MP2 g-tensors                              
  Willem Van den Heuvel  : Paramagnetic NMR                              
  Zikuan Wang            : NOTCH, Electric field optimization            
  Frank Wennmohs         : Technical directorship and infrastructure     
  Hang Xu                : AUTO-CI-Response properties                   
                                                                         
[FACCTs GmbH]                                                            
  Markus Bursch, Nicolas Foglia, Miquel Garcia-Rates, Ingolf Harden, Hagen Neugebauer, Anastasios Papadopoulos, 
  Christoph Riplinger, Bernardo de Souza, Georgi L. Stoychev                                                    
                                                                 
  APM, various basis sets, CI-OPT, improved COSX, DLPNO-Multilevel,           
  DOCKER, DRACO, updates on ESD, Fragmentator, GOAT, IRC, LR-CPCM, L-BFGS, MBIS, meta-GGA TD-DFT gradient, ML-optimized integration grids, 
  MM, NACMEs, nearIR, NEB, NEB-TS, NL-DFT gradient (VV10), 2- and 3-layer-ONIOM, interface openCOSMO-RS, QMMM,   
  Crystal-QMMM, RESP, rigid body optimization, SF, symmetry and pop. for TD-DFT, various functionals, SOLVATOR                                   
                                                                         
[Other institutions]                                                     
  V. Asgeirsson          : NEB                                           
  Christoph Bannwarth    : sTDA-DFT, sTD-DFT, PBEh-3c, B97-3c, D3        
  Giovanni Bistoni       : ETS/NOCV, ADLD/ADEX, COVALED                  
  Martin Brehm           : Molecular dynamics                            
  Ronald Cardenas        : ETS/NOCV                                      
  Martina Colucci        : COVALED                                       
  Sebastian Ehlert       : rSCAN, r2SCAN, r2SCAN-3c, D4, dhf basis sets  
  Marvin Friede          : D4 for Fr, Ra, Ac-Lr                          
  Lars Goerigk           : TD-DFT with DH, B97 family of functionals     
  Stefan Grimme          : VdW corrections, initial TS optimization, DFT functionals, gCP, sTDA/sTD-DF 
  Waldemar Hujo          : DFT-NL                                        
  H. Jonsson             : NEB                                           
  Holger Kruse           : gCP                                           
  Marcel Mueller         : wB97X-3c, vDZP basis set                      
  Hagen Neugebauer       : wr2SCAN, Native XTB                           
  Gianluca Regni         : ADLD/ADEX                                     
  Tobias Risthaus        : pre 6.0 range-separated hybrid DFT and stability analysis
  Lukas Wittmann         : regularized MP2, r2SCAN double-hybrids, wr2SCAN        
                                                                         
We gratefully acknowledge several colleagues who have allowed us to      
interface, adapt or use parts of their codes:                            
  Ed Valeev, F. Pavosevic, A. Kumar             : LibInt (2-el integral package), F12 methods 
  Garnet Chan, S. Sharma, J. Yang, R. Olivares  : DMRG                   
  Ulf Ekstrom                                   : XCFun DFT Library      
  Mihaly Kallay                                 : mrcc  (arbitrary order and MRCC methods)
  Frank Weinhold                                : gennbo (NPA and NBO analysis)           
  Simon Mueller                                 : openCOSMO-RS                            
  Christopher J. Cramer and Donald G. Truhlar   : smd solvation model                     
  S Lehtola, MJT Oliveira, MAL Marques          : LibXC Library                           
  Liviu Ungur et al                             : ANISO software                          


 Your calculation uses the libint2 library for the computation of 2-el integrals
 For citations please refer to: http://libint.valeyev.net

 Your ORCA version has been built with support for libXC version: 7.0.0
 For citations please refer to: https://libxc.gitlab.io

 This ORCA versions uses:
   CBLAS   interface :  Fast vector & matrix operations
   LAPACKE interface :  Fast linear algebra routines
   SCALAPACK package :  Parallel linear algebra routines
   Shared memory     :  Shared parallel matrices
   BLAS/LAPACK       :  OpenBLAS 0.3.29  USE64BITINT DYNAMIC_ARCH NO_AFFINITY Haswell SINGLE_THREADED
        Core in use  :  Haswell
   Copyright (c) 2011-2014, The OpenBLAS Project


  ***********************************
  * Starting time: Tue Jul  7 13:01:44 2026
  * Host name:     Slade190455
  * Process ID:    1648368
  * Working dir.:  /media/HDD1/guest/TDDFT_Dyson/orca
  ***********************************

NOTE: MaxCore=2000 MB was set to SCF,MP2,MDCI,CIPSI,MRCI,RASCI and CIS
      => If you want to overwrite this, your respective input block should be placed after the MaxCore statement
Your calculation utilizes the atom-pairwise dispersion correction
with the zero-damping scheme (D30)


XCFun DFT library Copyright 2009-2010 Ulf Ekstrom and contributors.
See http://admol.org/xcfun for more information.
This is free software; see the source code for copying conditions.
There is ABSOLUTELY NO WARRANTY; not even for MERCHANTABILITY or FITNESS FOR A PARTICULAR PURPOSE.
For details see the documentation.
Scientific users of this library should cite U. Ekstrom, L. Visscher, R. Bast, A. J. Thorvaldsen and K. Ruud;
J.Chem.Theor.Comp. 2010, DOI: 10.1021/ct100117s
XCFun Version 0.99 

Warning: RI is on but no J-basis has been assigned. Assigning Def2/J (nothing to worry about!)
================================================================================

----- Orbital basis set information -----
Your calculation utilizes the basis: cc-pVDZ 
       H, B-Ne : Obtained from the ccRepo (grant-hill.group.shef.ac.uk/ccrepo) Feb. 2017
                 T. H. Dunning, Jr., J. Chem. Phys. 90, 1007 (1989)
            He : Obtained from the ccRepo (grant-hill.group.shef.ac.uk/ccrepo) Feb. 2017
                 D. E. Woon, T. H. Dunning, Jr., J. Chem. Phys. 100, 2975 (1994)
  Li-Be, Na-Mg : Obtained from the ccRepo (grant-hill.group.shef.ac.uk/ccrepo) Feb. 2017
                 B. P. Prascher, D. E. Woon, K. A. Peterson, T. H. Dunning, Jr., A. K. Wilson, Theor. Chem. Acc. 128, 69 (2011)
         Al-Ar : Obtained from the ccRepo (grant-hill.group.shef.ac.uk/ccrepo) Feb. 2017
                 D. E. Woon, T. H. Dunning, Jr., J. Chem. Phys. 98, 1358 (1993)
            Ca : Obtained from the Peterson Research Group Website (tyr0.chem.wsu.edu/~kipeters) Feb. 2017
                 J. Koput, K. A. Peterson, J. Phys. Chem. 106, 9595 (2002)
         Sc-Zn : Obtained from the ccRepo (grant-hill.group.shef.ac.uk/ccrepo) Feb. 2017
                 N. B. Balabanov, K. A. Peterson, J. Chem. Phys. 123, 064107 (2005)
                 N. B. Balabanov, K. A. Peterson, J. Chem. Phys. 125, 074110 (2006)
         Ga-Kr : Obtained from the ccRepo (grant-hill.group.shef.ac.uk/ccrepo) Feb. 2017
                 A. K. Wilson, D. E. Woon, K. A. Peterson, T. H. Dunning, Jr., J. Chem. Phys. 110, 7667 (1999)

----- AuxJ basis set information -----
Your calculation utilizes the auxiliary basis: def2/J
   H-Rn: F. Weigend, Phys. Chem. Chem. Phys. 8, 1057 (2006).
   Fr-Lr: K. Eichkorn, F. Weigend, O. Treutler, R. Ahlrichs; Theor. Chem. Acc. 97, 119 (1997).

================================================================================
                                        WARNINGS
                       Please study these warnings very carefully!
================================================================================

WARNING: Old DensityContainer found on disk!
         Will remove this file - 
         If you want to keep old densities, please start your calculation with a different basename. 


WARNING: CIS/ROCIS methods need fully converged wavefunctions
  ===> : Setting SCFConvForced true
         You can overwrite this default with %scf ConvForced false 


================================================================================
                                       INPUT FILE
================================================================================
NAME = MeOH_i.in
|  1> ! UKS wB97X-D3 cc-pVDZ TightSCF NoSym
|  2> 
|  3> %pal
|  4>   nprocs 4
|  5> end
|  6> 
|  7> %maxcore 2000
|  8> 
|  9> %scf
| 10>   MaxIter 2000
| 11> end
| 12> 
| 13> %tddft
| 14>   NRoots 6
| 15>   TDA true
| 16> end
| 17> 
| 18> %output
| 19>   Print[P_Basis] 2
| 20>   Print[P_MOs] 1
| 21> end
| 22> 
| 23> * xyz 1 2
| 24>  C    0.0000000   -0.0147269    0.7156012
| 25>  O    0.0000000    0.0695525   -0.6801439
| 26>  H    0.0000000    1.0112743    1.1376602
| 27>  H    0.0000000   -0.8665191   -1.0095561
| 28>  H    0.9151188   -0.5366486    1.0703452
| 29>  H   -0.9151188   -0.5366486    1.0703452
| 30> *
| 31> 
| 32>                          ****END OF INPUT****
================================================================================

                       ****************************
                       * Single Point Calculation *
                       ****************************

---------------------------------
CARTESIAN COORDINATES (ANGSTROEM)
---------------------------------
  C      0.000000   -0.014727    0.715601
  O      0.000000    0.069553   -0.680144
  H      0.000000    1.011274    1.137660
  H      0.000000   -0.866519   -1.009556
  H      0.915119   -0.536649    1.070345
  H     -0.915119   -0.536649    1.070345

----------------------------
CARTESIAN COORDINATES (A.U.)
----------------------------
  NO LB      ZA    FRAG     MASS         X           Y           Z
   0 C     6.0000    0    12.011    0.000000   -0.027830    1.352290
   1 O     8.0000    0    15.999    0.000000    0.131435   -1.285286
   2 H     1.0000    0     1.008    0.000000    1.911031    2.149866
   3 H     1.0000    0     1.008    0.000000   -1.637484   -1.907785
   4 H     1.0000    0     1.008    1.729324   -1.014119    2.022659
   5 H     1.0000    0     1.008   -1.729324   -1.014119    2.022659

--------------------------------
INTERNAL COORDINATES (ANGSTROEM)
--------------------------------
 C      0   0   0     0.000000000000     0.00000000     0.00000000
 O      1   0   0     1.398287310047     0.00000000     0.00000000
 H      1   2   0     1.109419786142   108.90495564     0.00000000
 H      2   1   3     0.992341895636   105.93193855   180.00000000
 H      1   2   3     1.111615034344   110.29440031   241.36853018
 H      1   2   3     1.111615034344   110.29440031   118.63146982

---------------------------
INTERNAL COORDINATES (A.U.)
---------------------------
 C      0   0   0     0.000000000000     0.00000000     0.00000000
 O      1   0   0     2.642380072526     0.00000000     0.00000000
 H      1   2   0     2.096499563361   108.90495564     0.00000000
 H      2   1   3     1.875254413969   105.93193855   180.00000000
 H      1   2   3     2.100647981260   110.29440031   241.36853018
 H      1   2   3     2.100647981260   110.29440031   118.63146982

---------------------
BASIS SET INFORMATION
---------------------
There are 3 groups of distinct atoms

 Group   1 Type C   : 17s4p1d contracted to 3s2p1d pattern {881/31/1}
 Group   2 Type O   : 17s4p1d contracted to 3s2p1d pattern {881/31/1}
 Group   3 Type H   : 4s1p contracted to 2s1p pattern {31/1}

Atom   0C    basis set group =>   1
Atom   1O    basis set group =>   2
Atom   2H    basis set group =>   3
Atom   3H    basis set group =>   3
Atom   4H    basis set group =>   3
Atom   5H    basis set group =>   3

-------------------------
BASIS SET IN INPUT FORMAT
-------------------------

 # Basis set for element : H 
 NewGTO H 
 S 3 
   1      13.0100000000      0.0334987264
   2       1.9620000000      0.2348008012
   3       0.4446000000      0.8136829579
 S 1 
   1       0.1220000000      1.0000000000
 P 1 
   1       0.7270000000      1.0000000000
  end;

 # Basis set for element : C 
 NewGTO C 
 S 8 
   1    6665.0000000000      0.0006915840
   2    1000.0000000000      0.0053257962
   3     228.0000000000      0.0270607210
   4      64.7100000000      0.1016568461
   5      21.0600000000      0.2745748236
   6       7.4950000000      0.4482943189
   7       2.7970000000      0.2849026107
   8       0.5215000000      0.0151948592
 S 8 
   1    6665.0000000000     -0.0002932697
   2    1000.0000000000     -0.0023180355
   3     228.0000000000     -0.0114997860
   4      64.7100000000     -0.0468267270
   5      21.0600000000     -0.1284661688
   6       7.4950000000     -0.3012662725
   7       2.7970000000     -0.2556307023
   8       0.5215000000      1.0937933610
 S 1 
   1       0.1596000000      1.0000000000
 P 3 
   1       9.4390000000      0.0569792516
   2       2.0020000000      0.3132072115
   3       0.5456000000      0.7603767417
 P 1 
   1       0.1517000000      1.0000000000
 D 1 
   1       0.5500000000      1.0000000000
  end;

 # Basis set for element : O 
 NewGTO O 
 S 8 
   1   11720.0000000000      0.0007096459
   2    1759.0000000000      0.0054672723
   3     400.8000000000      0.0278231186
   4     113.7000000000      0.1047477397
   5      37.0300000000      0.2829208464
   6      13.2700000000      0.4484952387
   7       5.0250000000      0.2708168852
   8       1.0130000000      0.0154502916
 S 8 
   1   11720.0000000000     -0.0003144434
   2    1759.0000000000     -0.0024821377
   3     400.8000000000     -0.0123163554
   4     113.7000000000     -0.0505389173
   5      37.0300000000     -0.1393849033
   6      13.2700000000     -0.3250774948
   7       5.0250000000     -0.2298483076
   8       1.0130000000      1.0953793468
 S 1 
   1       0.3023000000      1.0000000000
 P 3 
   1      17.7000000000      0.0626791663
   2       3.8540000000      0.3335365659
   3       1.0460000000      0.7412396416
 P 1 
   1       0.2753000000      1.0000000000
 D 1 
   1       1.1850000000      1.0000000000
  end;

---------------------------------
AUXILIARY/J BASIS SET INFORMATION
---------------------------------
There are 3 groups of distinct atoms

 Group   1 Type C   : 12s5p4d2f1g contracted to 6s4p3d1f1g pattern {711111/2111/211/2/1}
 Group   2 Type O   : 12s5p4d2f1g contracted to 6s4p3d1f1g pattern {711111/2111/211/2/1}
 Group   3 Type H   : 5s2p1d contracted to 3s1p1d pattern {311/2/1}

Atom   0C    basis set group =>   1
Atom   1O    basis set group =>   2
Atom   2H    basis set group =>   3
Atom   3H    basis set group =>   3
Atom   4H    basis set group =>   3
Atom   5H    basis set group =>   3

-------------------------------------
AUXILIARY/J BASIS SET IN INPUT FORMAT
-------------------------------------

 # Auxiliary/J basis set for element : H 
 NewAuxJGTO H 
 S 3 
   1      15.6752927000      0.1007184237
   2       3.6063578000      0.3404257499
   3       1.2080016000      0.6491996172
 S 1 
   1       0.4726794000      1.0000000000
 S 1 
   1       0.2018100000      1.0000000000
 P 2 
   1       2.0281365000      0.5596620919
   2       0.5358730000      0.5596620919
 D 1 
   1       2.2165124000      1.0000000000
  end;

 # Auxiliary/J basis set for element : C 
 NewAuxJGTO C 
 S 7 
   1    1861.0916331000      0.0134602335
   2     642.9939764000      0.0299160374
   3     235.1105725000      0.1008649584
   4      90.7028894000      0.2370970548
   5      36.7794552000      0.3924037254
   6      15.6046273000      0.3195862154
   7       6.8907294000      0.0530104441
 S 1 
   1       3.1478850000     -1.0000000000
 S 1 
   1       1.4777287000      1.0000000000
 S 1 
   1       0.7076466000      1.0000000000
 S 1 
   1       0.3430122000      1.0000000000
 S 1 
   1       0.1669453000      1.0000000000
 P 2 
   1      13.5472892000     -0.6769313712
   2       5.4669419000     -0.3779500978
 P 1 
   1       2.1751721000      1.0000000000
 P 1 
   1       0.8582194000      1.0000000000
 P 1 
   1       0.3376720000      1.0000000000
 D 2 
   1       5.9287253000     -0.3533329857
   2       1.9809209000     -0.7456525731
 D 1 
   1       0.8055417000     -1.0000000000
 D 1 
   1       0.3531244000     -1.0000000000
 F 2 
   1       1.6755626000      0.6311076882
   2       0.5997536000      0.4968166032
 G 1 
   1       1.0024600000     -1.0000000000
  end;

 # Auxiliary/J basis set for element : O 
 NewAuxJGTO O 
 S 7 
   1    2876.8216605000      0.0168151159
   2    1004.7443032000      0.0340137548
   3     369.7579954000      0.1194951309
   4     142.9442404000      0.2664627624
   5      57.8366425000      0.4202764046
   6      24.3864983000      0.2765077335
   7      10.6622662000      0.0057008815
 S 1 
   1       4.8070437000     -1.0000000000
 S 1 
   1       2.2210770000      1.0000000000
 S 1 
   1       1.0447795000      1.0000000000
 S 1 
   1       0.4968425000      1.0000000000
 S 1 
   1       0.2371384000      1.0000000000
 P 2 
   1      64.2613382000     -0.2731534179
   2      16.3006076000     -0.8168011598
 P 1 
   1       4.3550542000      1.0000000000
 P 1 
   1       1.2019554000      1.0000000000
 P 1 
   1       0.3354196000      1.0000000000
 D 2 
   1       9.2146611000     -0.4661230638
   2       2.8435251000     -0.6600908911
 D 1 
   1       0.9955759000     -1.0000000000
 D 1 
   1       0.3649441000     -1.0000000000
 F 2 
   1       2.6420115000      0.5931563945
   2       0.7345613000      0.5931563945
 G 1 
   1       1.3931000000     -1.0000000000
  end;


Checking for AutoStart:
The File: MeOH_i.gbw exists
Trying to determine its content:
     ... Fine, the file contains calculation information
     ... Fine, the calculation information was read
     ... Fine, the file contains a basis set
     ... Fine, the basis set was read
     ... Fine, the file contains a geometry
     ... Fine, the geometry was read
     ... Fine, the file contains a set of orbitals
     ... Fine, the orbitals can be read
     => possible old guess file was deleted
     => GBW file was renamed to GES file
     => GES file is set as startup file
     => Guess is set to MORead
     ... now leaving AutoStart



           ************************************************************
           *        Program running with 4 parallel MPI-processes     *
           *              working on a common directory               *
           ************************************************************
------------------------------------------------------------------------------
                             ORCA STARTUP CALCULATIONS
                           -- RI-GTO INTEGRALS CHOSEN --
------------------------------------------------------------------------------
------------------------------------------------------------------------------
                   ___                                                        
                  /   \      - P O W E R E D   B Y -                         
                 /     \                                                     
                 |  |  |   _    _      __       _____    __    __             
                 |  |  |  | |  | |    /  \     |  _  \  |  |  /  |          
                  \  \/   | |  | |   /    \    | | | |  |  | /  /          
                 / \  \   | |__| |  /  /\  \   | |_| |  |  |/  /          
                |  |  |   |  __  | /  /__\  \  |    /   |      \           
                |  |  |   | |  | | |   __   |  |    \   |  |\   \          
                \     /   | |  | | |  |  |  |  | |\  \  |  | \   \       
                 \___/    |_|  |_| |__|  |__|  |_| \__\ |__|  \__/        
                                                                              
                      - O R C A' S   B I G   F R I E N D -                    
                                      &                                       
                       - I N T E G R A L  F E E D E R -                       
                                                                              
 v1 FN, 2020, v2 2021, v3 2022-2024                                           
------------------------------------------------------------------------------


----------------------
SHARK INTEGRAL PACKAGE
----------------------

Number of atoms                             ...      6
Number of basis functions                   ...     60
Number of shells                            ...     36
Maximum angular momentum                    ...      2
Integral batch strategy                     ... SHARK/LIBINT Hybrid
RI-J (if used) integral strategy            ... SPLIT-RIJ (Revised 2003 algorithm where possible)
Printlevel                                  ...      1
Contraction scheme used                     ... PARTIAL GENERAL contraction
Prescreening option                         ... SCHWARTZ
   Thresh                                   ... 2.500e-11
   Tcut                                     ... 2.500e-12
   Tpresel                                  ... 2.500e-12 
Coulomb Range Separation                    ... NOT USED
Exchange Range Separation                   ... Long Range
   Mu parameter                             ... 2.500e-01
   Scaling (regular/separated)              ... 1.957e-01 8.043e-01
Robust (split-)RI terms used:
  metric    (central integrals)             ... YES
  density   (r.h.s.  integrals)             ... YES
  potential (l.h.s.  integrals)             ... YES
Multipole approximations                    ... NOT USED
Finite Nucleus Model                        ... NOT USED
CABS basis                                  ... NOT available
Auxiliary Coulomb fitting basis             ... AVAILABLE
   # of basis functions in Aux-J            ...    142
   # of shells in Aux-J                     ...     50
   Maximum angular momentum in Aux-J        ...      4
Auxiliary J/K fitting basis                 ... NOT available
Auxiliary Correlation fitting basis         ... NOT available
Auxiliary 'external' fitting basis          ... NOT available

Checking pre-screening integrals            ... done (  0.0 sec) Dimension = 36
Save PGC pre-screening integrals            ... done (  0.0 sec) Dimension = 36
Calculate PGC overlap integrals             ... done (  0.0 sec) Dimension = 24
Calculating pre-screening integrals (ORCA)  ... done (  0.0 sec) Dimension = 24
Shell pair information
Shell pair cut-off parameter TPreSel        ...   2.5e-12
Total number of shell pairs                 ...       666
Shell pairs after pre-screening             ...       625
Total number of primitive shell pairs       ...      1194
Primitive shell pairs kept                  ...      1072
          la=0 lb=0:    310 shell pairs
          la=1 lb=0:    208 shell pairs
          la=1 lb=1:     36 shell pairs
          la=2 lb=0:     52 shell pairs
          la=2 lb=1:     16 shell pairs
          la=2 lb=2:      3 shell pairs

Checking whether 4 symmetric matrices of dimension 60 fit in memory
:Max Core in MB      =   2000.00
 MB in use           =      3.88
 MB left             =   1996.12
 MB needed           =      0.06
 Data fit in memory  = YES
Calculating RI/J V-Matrix + Cholesky decomp.... done (  0.0 sec)
Calculating Nuclear repulsion               ... done (  0.0 sec) ENN=     40.345600411270 Eh

Diagonalization of the overlap matrix:
Smallest eigenvalue                        ... 1.646e-02
Time for diagonalization                   ...    0.000 sec
Threshold for overlap eigenvalues          ... 1.000e-07
Number of eigenvalues below threshold      ... 0
Time for construction of square roots      ...    0.000 sec
Total time needed                          ...    0.001 sec

-------------------
DFT GRID GENERATION
-------------------

General Integration Accuracy     IntAcc      ... 4.388
Radial Grid Type                 RadialGrid  ... OptM3 with GC (2021)
Angular Grid (max. ang.)         AngularGrid ... 4 (Lebedev-302)
Angular grid pruning method      GridPruning ... 4 (adaptive)
Weight generation scheme         WeightScheme... mBecke (2022)
Basis function cutoff            BFCut       ... 1.0000e-11
Integration weight cutoff        WCut        ... 1.0000e-14
Partially contracted basis set               ... off
Rotationally invariant grid construction     ... off
Angular grids for H and He will be reduced by one unit

Total number of grid points                  ...    25323
Total number of batches                      ...      399
Average number of points per batch           ...       63
Average number of grid points per atom       ...     4220

---------------------
SHARK GRID GENERATION
---------------------

General Integration Accuracy     IntAcc      ... 4.388
Radial Grid Type                 RadialGrid  ... OptM3 with GC (2021)
Angular Grid (max. ang.)         AngularGrid ... 4 (Lebedev-302)
Angular grid pruning method      GridPruning ... 4 (adaptive)
Weight generation scheme         WeightScheme... mBecke (2022)
Basis function cutoff            BFCut       ... 1.0000e-11
Integration weight cutoff        WCut        ... 1.0000e-14
Partially contracted basis set               ... off
Rotationally invariant grid construction     ... off
Angular grids for H and He will be reduced by one unit
Steep s-basis detected: some atoms will have their radial
                        grid points doubled.

Total number of grid points                  ...    37729
Total number of batches                      ...      593
Average number of points per batch           ...       63
Average number of grid points per atom       ...     6288

--------------------
COSX GRID GENERATION
--------------------

GRIDX 1
-------
General Integration Accuracy     IntAcc      ... 3.816
Radial Grid Type                 RadialGrid  ... OptM3 with GC (2021)
Angular Grid (max. ang.)         AngularGrid ... 1 (Lebedev-50)
Angular grid pruning method      GridPruning ... 4 (adaptive)
Weight generation scheme         WeightScheme... mBecke (2022)
Basis function cutoff            BFCut       ... 1.0000e-11
Integration weight cutoff        WCut        ... 1.0000e-14
Partially contracted basis set               ... on
Rotationally invariant grid construction     ... off
Angular grids for H and He will be reduced by one unit

Total number of grid points                  ...     3288
Total number of batches                      ...       29
Average number of points per batch           ...      113
Average number of grid points per atom       ...      548
UseSFitting                                  ... on

GRIDX 2
-------
General Integration Accuracy     IntAcc      ... 4.020
Radial Grid Type                 RadialGrid  ... OptM3 with GC (2021)
Angular Grid (max. ang.)         AngularGrid ... 2 (Lebedev-110)
Angular grid pruning method      GridPruning ... 4 (adaptive)
Weight generation scheme         WeightScheme... mBecke (2022)
Basis function cutoff            BFCut       ... 1.0000e-11
Integration weight cutoff        WCut        ... 1.0000e-14
Partially contracted basis set               ... on
Rotationally invariant grid construction     ... off
Angular grids for H and He will be reduced by one unit

Total number of grid points                  ...     6930
Total number of batches                      ...       57
Average number of points per batch           ...      121
Average number of grid points per atom       ...     1155
UseSFitting                                  ... on

GRIDX 3
-------
General Integration Accuracy     IntAcc      ... 4.338
Radial Grid Type                 RadialGrid  ... OptM3 with GC (2021)
Angular Grid (max. ang.)         AngularGrid ... 3 (Lebedev-194)
Angular grid pruning method      GridPruning ... 4 (adaptive)
Weight generation scheme         WeightScheme... mBecke (2022)
Basis function cutoff            BFCut       ... 1.0000e-11
Integration weight cutoff        WCut        ... 1.0000e-14
Partially contracted basis set               ... on
Rotationally invariant grid construction     ... off
Angular grids for H and He will be reduced by one unit

Total number of grid points                  ...    15217
Total number of batches                      ...      121
Average number of points per batch           ...      125
Average number of grid points per atom       ...     2536
UseSFitting                                  ... on
Grids setup in   0.3 sec
Initializing property integral containers    ... done (  0.0 sec)

SHARK setup successfully completed in   0.4 seconds

Maximum memory used throughout the entire STARTUP-calculation: 13.9 MB


           ************************************************************
           *        Program running with 4 parallel MPI-processes     *
           *              working on a common directory               *
           ************************************************************
-------------------------------------------------------------------------------
                                 ORCA GUESS
                   Start orbitals & Density for SCF / CASSCF
-------------------------------------------------------------------------------

------------
SCF SETTINGS
------------
Hamiltonian:
 Density Functional     Method          .... DFT(GTOs)
 Exchange Functional    Exchange        .... WB97X-D3
 Correlation Functional Correlation     .... WB97X-D3
 Gradients option       PostSCFGGA      .... off
 Hybrid DFT is turned on
   Fraction HF Exchange ScalHFX         ....  0.195728
   Scaling of DF-GGA-X  ScalDFX         ....  0.000000
   Scaling of DF-GGA-C  ScalDFC         ....  1.000000
   Scaling of DF-LDA-C  ScalLDAC        ....  1.000000
   Perturbative correction              ....  0.000000
 Long-range corrected/Screened/Range-Separated Hybrid DFT is turned on
   Amount of maximum screened exact exchange              ....  0.804272
   Range separation parameter mu (erf(mu*r12)/r12)        ....  0.250000
 RI-approximation to the Coulomb term is turned on
   Number of AuxJ basis functions       .... 142
   RIJ-COSX (HFX calculated with COS-X)).... on


General Settings:
 Integral files         IntName         .... MeOH_i
 Hartree-Fock type      HFTyp           .... UHF
 Total Charge           Charge          ....    1
 Multiplicity           Mult            ....    2
 Number of Electrons    NEL             ....   17
 Basis Dimension        Dim             ....   48
 Nuclear Repulsion      ENuc            ....     40.3456004113 Eh

Convergence Acceleration:
 AO-DIIS                CNVDIIS         .... on
   Start iteration      DIISMaxIt       ....    12
   Startup error        DIISStart       ....  0.200000
   # of expansion vecs  DIISMaxEq       ....     5
   Bias factor          DIISBfac        ....   1.050
   Max. coefficient     DIISMaxC        ....  10.000
 MO-DIIS                CNVKDIIS        .... off
 Trust-Rad. Augm. Hess. CNVTRAH         .... auto
   Auto Start mean grad. ratio tolernc. ....  1.125000
   Auto Start start iteration           ....     1
   Auto Start num. interpolation iter.  ....    10
   Max. Number of Micro iterations      ....    24
   Max. Number of Macro iterations      .... Maxiter - #DIIS iter
   Number of Davidson start vectors     ....     2
   Converg. threshold    (grad. norm)   ....   1.000e-05
   Grad. Scal. Fac. for Micro threshold ....   0.100
   Minimum threshold for Micro iter.    ....   1.000e-02
   NR start threshold (gradient norm)   ....   1.000e-04
   Initial trust radius                 ....   0.400
   Minimum AH scaling param. (alpha)    ....   1.000
   Maximum AH scaling param. (alpha)    .... 1000.000
   Quad. conv. algorithm                .... NR
   White noise on init. David. guess    .... on
   Maximum white noise                  ....   0.010
   Pseudo random numbers                .... off
   Inactive MOs                         .... canonical
   Orbital update algorithm             .... Taylor
   Preconditioner                       .... Diag
   Full preconditioner red. dimension   ....   250
 SOSCF                 CNVSOSCF           .... on
   Start iteration     SOSCFMaxIt         ....   150
   Startup grad/error  SOSCFStart         ....  0.003300
   Hessian update      SOSCFHessUp        .... L-BFGS
   Autom. constraints  SOSCFAutoConstrain .... off
 Level Shifting         CNVShift        .... on
   Level shift para.    LevelShift      ....    0.2500
   Turn off err/grad.   ShiftErr        ....    0.0010
 Zerner damping         CNVZerner       .... off
 Static damping         CNVDamp         .... on
   Fraction old density DampFac         ....    0.7000
   Max. Damping (<1)    DampMax         ....    0.9800
   Min. Damping (>=0)   DampMin         ....    0.0000
   Turn off err/grad.   DampErr         ....    0.1000

SCF Procedure:
 Maximum # iterations   MaxIter         ....  2000
 SCF integral mode      SCFMode         .... Direct
   Integral package                     .... SHARK and LIBINT hybrid scheme
 Reset frequency        DirectResetFreq ....    20
 Integral Threshold     Thresh          ....  2.500e-11 Eh
 Primitive CutOff       TCut            ....  2.500e-12 Eh

Convergence Tolerance:
 Convergence Check Mode ConvCheckMode   .... Total+1el-Energy
 Convergence forced     ConvForced      .... 1
 Energy Change          TolE            ....  1.000e-08 Eh
 1-El. energy change                    ....  1.000e-05 Eh
 Orbital Gradient       TolG            ....  1.000e-05
 Orbital Rotation angle TolX            ....  1.000e-05
 DIIS Error             TolErr          ....  5.000e-07

---------------------
INITIAL GUESS: MOREAD
---------------------
Guess MOs are being read from file: MeOH_i.ges
Input Geometry matches current geometry (good)
Input basis set matches current basis set (good)
MOs were renormalized
MOs were reorthogonalized (Cholesky)
                      ------------------
                      INITIAL GUESS DONE (   0.0 sec)
                      ------------------
             **** ENERGY FILE WAS UPDATED (MeOH_i.en.tmp) ****
Finished Guess after   0.3 sec
Maximum memory used throughout the entire GUESS-calculation: 6.1 MB


           ************************************************************
           *        Program running with 4 parallel MPI-processes     *
           *              working on a common directory               *
           ************************************************************

-------------------------------------------------------------------------------------------
                                      ORCA LEAN-SCF
                              memory conserving SCF solver
-------------------------------------------------------------------------------------------

----------------------------------------D-I-I-S--------------------------------------------
Iteration    Energy (Eh)           Delta-E    RMSDP     MaxDP     DIISErr   Damp  Time(sec)
-------------------------------------------------------------------------------------------
               ***  Starting incremental Fock matrix formation  ***
                              *** Initializing SOSCF ***
---------------------------------------S-O-S-C-F--------------------------------------
Iteration    Energy (Eh)           Delta-E    RMSDP     MaxDP     MaxGrad    Time(sec)
--------------------------------------------------------------------------------------
    1    -115.2988442512432528     0.00e+00  1.57e-07  1.28e-06  2.71e-07     0.1
               *** Restarting incremental Fock matrix formation ***
    2    -115.2988442512721576    -2.89e-11  1.25e-07  8.13e-07  6.79e-07     0.1
                  *** Gradient check signals convergence ***

               *****************************************************
               *                     SUCCESS                       *
               *           SCF CONVERGED AFTER   2 CYCLES          *
               *****************************************************

Recomputing exchange energy using gridx3       ... done (    0.078 sec)
Old exchange energy                            :     -4.663665333 Eh
New exchange energy                            :     -4.663670063 Eh
Exchange energy change after final integration :     -0.000004730 Eh
Total energy after final integration           :   -115.298848981 Eh
             **** ENERGY FILE WAS UPDATED (MeOH_i.en.tmp) ****

----------------
TOTAL SCF ENERGY
----------------

Total Energy       :       -115.29884898097978 Eh           -3137.44119 eV

Components:
Nuclear Repulsion  :         40.34560041127031 Eh            1097.85960 eV
Electronic Energy  :       -155.64444466225086 Eh           -4235.30066 eV
One Electron Energy:       -230.70126162291729 Eh           -6277.70048 eV
Two Electron Energy:         75.05681696066644 Eh            2042.39982 eV

Virial components:
Potential Energy   :       -229.84412661954516 Eh           -6254.37665 eV
Kinetic Energy     :        114.54527763856538 Eh            3116.93547 eV
Virial Ratio       :          2.00657880759425

DFT components:
N(Alpha)           :        9.000004036447 electrons
N(Beta)            :        8.000005246029 electrons
N(Total)           :       17.000009282475 electrons
E(XC)              :      -10.424983912155 Eh       

---------------
SCF CONVERGENCE
---------------

  Last Energy change         ...    2.8905e-11  Tolerance :   1.0000e-08
  Last MAX-Density change    ...    8.1259e-07  Tolerance :   1.0000e-07
  Last RMS-Density change    ...    1.2462e-07  Tolerance :   5.0000e-09
  Last DIIS Error            ...    1.0418e-06  Tolerance :   5.0000e-07
  Last Orbital Gradient      ...    6.7901e-07  Tolerance :   1.0000e-05
  Last Orbital Rotation      ...    9.0722e-07  Tolerance :   1.0000e-05


----------------------
UHF SPIN CONTAMINATION
----------------------

Warning: in a DFT calculation there is little theoretical justification to 
         calculate <S**2> as in Hartree-Fock theory. We will do it anyways
         but you should keep in mind that the values have only limited relevance

Expectation value of <S**2>     :     0.754191
Ideal value S*(S+1) for S=0.5   :     0.750000
Deviation                       :     0.004191

----------------
ORBITAL ENERGIES
----------------
                 SPIN UP ORBITALS
  NO   OCC          E(Eh)            E(eV) 
   0   1.0000     -19.700960      -536.0904 
   1   1.0000     -10.637753      -289.4680 
   2   1.0000      -1.553363       -42.2692 
   3   1.0000      -1.119398       -30.4604 
   4   1.0000      -0.967819       -26.3357 
   5   1.0000      -0.916130       -24.9292 
   6   1.0000      -0.875644       -23.8275 
   7   1.0000      -0.764127       -20.7930 
   8   1.0000      -0.755726       -20.5644 
   9   0.0000      -0.130169        -3.5421 
  10   0.0000      -0.050699        -1.3796 
  11   0.0000      -0.019093        -0.5195 
  12   0.0000      -0.015673        -0.4265 
  13   0.0000      -0.002841        -0.0773 
  14   0.0000       0.269610         7.3365 
  15   0.0000       0.277338         7.5468 
  16   0.0000       0.304101         8.2750 
  17   0.0000       0.357295         9.7225 
  18   0.0000       0.456561        12.4237 
  19   0.0000       0.460760        12.5379 

                 SPIN DOWN ORBITALS
  NO   OCC          E(Eh)            E(eV) 
   0   1.0000     -19.683424      -535.6132 
   1   1.0000     -10.637200      -289.4529 
   2   1.0000      -1.502223       -40.8776 
   3   1.0000      -1.100549       -29.9475 
   4   1.0000      -0.945665       -25.7329 
   5   1.0000      -0.857563       -23.3355 
   6   1.0000      -0.826597       -22.4929 
   7   1.0000      -0.744647       -20.2629 
   8   0.0000      -0.420685       -11.4474 
   9   0.0000      -0.122923        -3.3449 
  10   0.0000      -0.044921        -1.2224 
  11   0.0000      -0.013347        -0.3632 
  12   0.0000      -0.006373        -0.1734 
  13   0.0000       0.002172         0.0591 
  14   0.0000       0.275135         7.4868 
  15   0.0000       0.294048         8.0015 
  16   0.0000       0.305637         8.3168 
  17   0.0000       0.362096         9.8531 
  18   0.0000       0.466718        12.7000 
*Only the first 10 virtual orbitals were printed.
------------------
MOLECULAR ORBITALS (UHF)
------------------
                      0         1         2         3         4         5   
                 -19.70096 -10.63775  -1.55336  -1.11940  -0.96782  -0.91613
                   1.00000   1.00000   1.00000   1.00000   1.00000   1.00000
                  --------  --------  --------  --------  --------  --------
  0C   1s         0.000099  1.005663  0.009390  0.011314  0.006266  0.000000
  0C   2s         0.000129  0.014379 -0.121401 -0.357992 -0.116115  0.000000
  0C   3s        -0.005768 -0.012233 -0.020890 -0.220806 -0.116236 -0.000000
  0C   1pz        0.000578 -0.000621  0.107619  0.015710 -0.188749 -0.000000
  0C   1px        0.000000  0.000000  0.000000 -0.000000 -0.000000 -0.279946
  0C   1py       -0.000014 -0.000275  0.001876 -0.011937  0.161541 -0.000000
  0C   2pz        0.002535 -0.000850  0.008260 -0.005906 -0.041200  0.000000
  0C   2px       -0.000000  0.000000  0.000000  0.000000 -0.000000 -0.098557
  0C   2py       -0.000229  0.000210  0.006964  0.002781  0.074325  0.000000
  0C   1dz2       0.000189 -0.000182 -0.028666 -0.008642  0.021116  0.000000
  0C   1dxz      -0.000000  0.000000  0.000000  0.000000 -0.000000  0.026387
  0C   1dyz      -0.000161  0.000049 -0.002596  0.007134 -0.025474 -0.000000
  0C   1dx2y2    -0.000005  0.000197 -0.001049 -0.001619 -0.002497  0.000000
  0C   1dxy       0.000000 -0.000000  0.000000 -0.000000 -0.000000  0.009351
  1O   1s        -1.003626  0.000413 -0.000975  0.006220  0.004858 -0.000000
  1O   2s        -0.008409  0.000735 -0.462607  0.126156  0.124699 -0.000000
  1O   3s         0.011417 -0.001740 -0.409966  0.113210  0.195332  0.000000
  1O   1pz       -0.000987 -0.000091 -0.070468 -0.288573  0.202367  0.000000
  1O   1px       -0.000000  0.000000 -0.000000 -0.000000 -0.000000 -0.557164
  1O   1py        0.001415  0.000048  0.087097 -0.134549  0.420838 -0.000000
  1O   2pz        0.003008 -0.001607 -0.039594 -0.133681  0.078414  0.000000
  1O   2px        0.000000 -0.000000  0.000000  0.000000 -0.000000 -0.318557
  1O   2py       -0.000885  0.000800  0.010109 -0.032798  0.185489 -0.000000
  1O   1dz2       0.000340 -0.000843 -0.001866 -0.017021  0.010062 -0.000000
  1O   1dxz      -0.000000  0.000000  0.000000 -0.000000 -0.000000 -0.015686
  1O   1dyz      -0.000200  0.000112  0.000625  0.007220  0.004307 -0.000000
  1O   1dx2y2    -0.000062  0.000212 -0.003949 -0.002216  0.014332 -0.000000
  1O   1dxy      -0.000000 -0.000000 -0.000000  0.000000  0.000000  0.014721
  2H   1s         0.000729 -0.001064 -0.025936 -0.150493 -0.020766 -0.000000
  2H   2s         0.000423  0.002090 -0.003630 -0.009217 -0.014968 -0.000000
  2H   1pz       -0.000281  0.000611  0.004765  0.006580 -0.001324 -0.000000
  2H   1px       -0.000000  0.000000 -0.000000  0.000000  0.000000 -0.008453
  2H   1py       -0.000141  0.001319  0.004667  0.020149  0.003890  0.000000
  3H   1s        -0.000287  0.000758 -0.156864  0.189978 -0.282147 -0.000000
  3H   2s        -0.000212  0.000425  0.004964  0.010905 -0.030209  0.000000
  3H   1pz        0.000093  0.000663 -0.014918  0.004874 -0.016672  0.000000
  3H   1px       -0.000000  0.000000 -0.000000  0.000000  0.000000 -0.021484
  3H   1py        0.000927  0.000156 -0.033587  0.029543 -0.030876 -0.000000
  4H   1s         0.000634 -0.001200 -0.029074 -0.160769 -0.158043 -0.158547
  4H   2s         0.000275  0.002299 -0.002119 -0.006105 -0.013786 -0.024749
  4H   1pz       -0.000274  0.000570  0.004691  0.006678  0.000955  0.004753
  4H   1px       -0.000058  0.001237  0.005700  0.017556  0.015298  0.006153
  4H   1py        0.000073 -0.000772 -0.003121 -0.011080 -0.004641 -0.008958
  5H   1s         0.000634 -0.001200 -0.029074 -0.160769 -0.158043  0.158547
  5H   2s         0.000275  0.002299 -0.002119 -0.006105 -0.013786  0.024749
  5H   1pz       -0.000274  0.000570  0.004691  0.006678  0.000955 -0.004753
  5H   1px        0.000058 -0.001237 -0.005700 -0.017556 -0.015298  0.006153
  5H   1py        0.000073 -0.000772 -0.003121 -0.011080 -0.004641  0.008958
                      6         7         8         9        10        11   
                  -0.87564  -0.76413  -0.75573  -0.13017  -0.05070  -0.01909
                   1.00000   1.00000   1.00000   0.00000   0.00000   0.00000
                  --------  --------  --------  --------  --------  --------
  0C   1s         0.004636  0.000000 -0.002698  0.006030  0.013766 -0.001207
  0C   2s        -0.050280  0.000000 -0.030056 -0.017240 -0.284402  0.033459
  0C   3s        -0.080458 -0.000000 -0.006504 -0.381243 -1.878519  0.039655
  0C   1pz       -0.304318  0.000000  0.006896 -0.199527  0.053800 -0.398304
  0C   1px        0.000000 -0.380611 -0.000000 -0.000000  0.000000  0.000000
  0C   1py       -0.139987  0.000000 -0.434602  0.060688  0.078600 -0.157823
  0C   2pz       -0.082927 -0.000000 -0.025868 -0.353058 -0.016453 -1.092537
  0C   2px        0.000000 -0.155542 -0.000000 -0.000000  0.000000  0.000000
  0C   2py       -0.082083  0.000000 -0.184233  0.078773  0.179262 -0.392440
  0C   1dz2       0.034476 -0.000000 -0.004816 -0.029032  0.015433 -0.038011
  0C   1dxz       0.000000 -0.022408 -0.000000 -0.000000 -0.000000 -0.000000
  0C   1dyz       0.016065  0.000000 -0.017501 -0.010306 -0.005152  0.030518
  0C   1dx2y2     0.001426 -0.000000  0.012720 -0.006500  0.009676 -0.007938
  0C   1dxy       0.000000  0.017154  0.000000  0.000000  0.000000  0.000000
  1O   1s         0.000632 -0.000000  0.000979  0.000346 -0.002474  0.006961
  1O   2s        -0.090201 -0.000000  0.069990 -0.179610  0.081730 -0.055402
  1O   3s        -0.165646 -0.000000  0.134649 -0.726803  0.382019 -0.400540
  1O   1pz        0.444476  0.000000 -0.085154 -0.013498  0.166466 -0.342029
  1O   1px        0.000000  0.436543  0.000000  0.000000 -0.000000 -0.000000
  1O   1py       -0.286114 -0.000000  0.275866  0.265572 -0.081463 -0.120255
  1O   2pz        0.236240  0.000000 -0.070956  0.029163  0.224603 -0.527193
  1O   2px        0.000000  0.276014  0.000000  0.000000 -0.000000 -0.000000
  1O   2py       -0.160907 -0.000000  0.147630  0.288659 -0.089911 -0.135724
  1O   1dz2       0.006983 -0.000000  0.000345  0.003798 -0.015520  0.007387
  1O   1dxz       0.000000 -0.003125 -0.000000 -0.000000  0.000000  0.000000
  1O   1dyz      -0.020088  0.000000 -0.005804  0.010747 -0.001696 -0.009870
  1O   1dx2y2    -0.008804 -0.000000  0.010650 -0.004648  0.003046  0.003975
  1O   1dxy      -0.000000 -0.009091 -0.000000 -0.000000  0.000000  0.000000
  2H   1s        -0.188756  0.000000 -0.346458  0.011059  0.039015  0.142222
  2H   2s        -0.016163  0.000000 -0.073312  0.110708  0.534568  1.000315
  2H   1pz        0.000030  0.000000  0.011915 -0.011773  0.009313 -0.010853
  2H   1px       -0.000000 -0.011439 -0.000000  0.000000  0.000000  0.000000
  2H   1py        0.016394 -0.000000  0.015044  0.006241 -0.000690  0.019034
  3H   1s         0.035869  0.000000 -0.170046  0.276440 -0.055681 -0.197353
  3H   2s        -0.016360  0.000000 -0.035202  0.945389 -0.219623 -0.758483
  3H   1pz        0.025210 -0.000000 -0.008173 -0.009189  0.014805  0.006951
  3H   1px        0.000000  0.017307  0.000000 -0.000000 -0.000000 -0.000000
  3H   1py       -0.003819  0.000000 -0.012813 -0.017692 -0.000979  0.017727
  4H   1s        -0.064614 -0.304810  0.181782  0.020148  0.095129  0.017674
  4H   2s        -0.020484 -0.072487  0.050516  0.256577  0.995431  0.021944
  4H   1pz       -0.004594  0.009271 -0.005247 -0.013581  0.013202 -0.022456
  4H   1px        0.004715  0.008144 -0.013003  0.007692  0.009835  0.007630
  4H   1py       -0.006433 -0.012182 -0.007883 -0.005893 -0.001089 -0.005978
  5H   1s        -0.064614  0.304810  0.181782  0.020148  0.095129  0.017674
  5H   2s        -0.020484  0.072487  0.050516  0.256577  0.995432  0.021945
  5H   1pz       -0.004594 -0.009271 -0.005247 -0.013581  0.013202 -0.022456
  5H   1px       -0.004715  0.008144  0.013003 -0.007692 -0.009835 -0.007630
  5H   1py       -0.006433  0.012182 -0.007883 -0.005893 -0.001089 -0.005978
                     12        13        14        15        16        17   
                  -0.01567  -0.00284   0.26961   0.27734   0.30410   0.35729
                   0.00000   0.00000   0.00000   0.00000   0.00000   0.00000
                  --------  --------  --------  --------  --------  --------
  0C   1s         0.000000 -0.003451 -0.053538 -0.000000  0.168099 -0.014979
  0C   2s         0.000000 -0.083749 -0.152309 -0.000000  0.426312 -0.018571
  0C   3s         0.000000 -0.395391  0.195967  0.000000 -0.615660  0.089149
  0C   1pz        0.000000  0.161616  0.245783 -0.000000 -0.800884 -0.267642
  0C   1px        0.444632 -0.000000 -0.000000 -0.213452 -0.000000 -0.000000
  0C   1py       -0.000000 -0.372086 -0.238674  0.000000 -0.124864  0.318031
  0C   2pz        0.000000  0.380336 -0.416784 -0.000000  1.455427  0.212124
  0C   2px        1.146629 -0.000000  0.000000  1.028401  0.000000  0.000000
  0C   2py       -0.000000 -1.096287  0.793087 -0.000000  0.505250 -0.982241
  0C   1dz2       0.000000  0.022950  0.023678  0.000000 -0.067485 -0.106222
  0C   1dxz      -0.030603  0.000000 -0.000000 -0.058087  0.000000  0.000000
  0C   1dyz      -0.000000  0.030566 -0.103172  0.000000 -0.021769 -0.118064
  0C   1dx2y2    -0.000000 -0.051131  0.146694 -0.000000  0.066186 -0.026269
  0C   1dxy       0.038140 -0.000000  0.000000  0.173336  0.000000 -0.000000
  1O   1s        -0.000000 -0.001949 -0.000590  0.000000 -0.061205 -0.044099
  1O   2s         0.000000  0.036213 -0.035602  0.000000 -0.141920 -0.126709
  1O   3s         0.000000  0.194486 -0.238386 -0.000000  0.682708  0.396633
  1O   1pz        0.000000  0.167367  0.172269 -0.000000 -0.184874 -0.118320
  1O   1px       -0.064109  0.000000 -0.000000 -0.225627 -0.000000 -0.000000
  1O   1py        0.000000  0.127469 -0.014562  0.000000 -0.021819  0.335603
  1O   2pz        0.000000  0.272194 -0.067084 -0.000000  0.183857  0.164319
  1O   2px       -0.145525  0.000000 -0.000000 -0.097282 -0.000000 -0.000000
  1O   2py        0.000000  0.234444 -0.091226  0.000000 -0.159806  0.102430
  1O   1dz2      -0.000000 -0.006697 -0.034280 -0.000000  0.077982  0.004648
  1O   1dxz       0.016343 -0.000000  0.000000  0.014478  0.000000 -0.000000
  1O   1dyz       0.000000 -0.013800  0.028996 -0.000000  0.002091  0.057549
  1O   1dx2y2    -0.000000 -0.004460 -0.020918  0.000000  0.004092 -0.075607
  1O   1dxy       0.007286 -0.000000  0.000000  0.009577  0.000000  0.000000
  2H   1s        -0.000000  0.179363 -0.618584  0.000000 -0.370390  0.077619
  2H   2s         0.000000  1.593982  0.428411 -0.000000 -0.005260  0.565630
  2H   1pz        0.000000  0.012594 -0.006211  0.000000 -0.007956 -0.053126
  2H   1px        0.014906 -0.000000  0.000000  0.068873  0.000000  0.000000
  2H   1py       -0.000000  0.013116 -0.025926  0.000000  0.008857 -0.018983
  3H   1s         0.000000  0.072502  0.387973 -0.000000 -0.242152  1.047987
  3H   2s         0.000000  0.358828 -0.240811  0.000000  0.638773 -1.107403
  3H   1pz       -0.000000  0.024640 -0.054048  0.000000 -0.124330 -0.056125
  3H   1px       -0.018658  0.000000 -0.000000 -0.002202  0.000000  0.000000
  3H   1py       -0.000000 -0.010575 -0.038837  0.000000  0.025317 -0.158712
  4H   1s        -0.160255 -0.133952  0.417149 -0.677398  0.019673  0.011522
  4H   2s        -1.496094 -0.728455 -0.229423  0.264063 -0.068295 -0.296846
  4H   1pz       -0.004379  0.009445  0.021043 -0.017264 -0.022198  0.027171
  4H   1px       -0.012173 -0.023461  0.036033  0.006512  0.020492  0.039246
  4H   1py        0.019777 -0.007865  0.045143  0.045381  0.013747 -0.035039
  5H   1s         0.160255 -0.133952  0.417149  0.677398  0.019673  0.011522
  5H   2s         1.496094 -0.728455 -0.229423 -0.264063 -0.068295 -0.296846
  5H   1pz        0.004379  0.009445  0.021043  0.017264 -0.022198  0.027171
  5H   1px       -0.012173  0.023461 -0.036033  0.006512 -0.020492 -0.039246
  5H   1py       -0.019777 -0.007865  0.045143 -0.045381  0.013747 -0.035039
                     18        19        20        21        22        23   
                   0.45656   0.46076   0.48216   0.63722   0.64381   0.76371
                   0.00000   0.00000   0.00000   0.00000   0.00000   0.00000
                  --------  --------  --------  --------  --------  --------
  0C   1s        -0.000000 -0.123878  0.080462 -0.000000  0.056555 -0.708937
  0C   2s        -0.000000 -0.449431  0.273877 -0.000000  0.125149 -1.458416
  0C   3s         0.000000  0.547565 -0.375793  0.000000 -0.724034  4.243874
  0C   1pz       -0.000000 -0.172824  0.151231 -0.000000  0.202399 -0.295649
  0C   1px        0.862635 -0.000000  0.000000  0.011721  0.000000 -0.000000
  0C   1py        0.000000  0.378404  0.689183 -0.000000  0.119056  0.055054
  0C   2pz        0.000000  0.385595 -0.280444  0.000000 -0.038494  0.334052
  0C   2px       -2.074988  0.000000 -0.000000  0.173208 -0.000000  0.000000
  0C   2py        0.000000 -0.861033 -1.631572  0.000000 -0.108052 -0.142728
  0C   1dz2      -0.000000 -0.111131  0.069940  0.000000 -0.069549  0.080843
  0C   1dxz      -0.196993  0.000000 -0.000000  0.198091  0.000000 -0.000000
  0C   1dyz       0.000000 -0.052814 -0.151453 -0.000000  0.234472  0.250178
  0C   1dx2y2     0.000000  0.112650  0.168560 -0.000000  0.271479  0.075172
  0C   1dxy       0.180385 -0.000000  0.000000  0.251630  0.000000 -0.000000
  1O   1s         0.000000  0.054218  0.011103 -0.000000 -0.001843 -0.119388
  1O   2s         0.000000  0.185079  0.006993 -0.000000  0.076644 -0.364850
  1O   3s         0.000000  0.037845 -0.217569 -0.000000  0.474925 -0.245078
  1O   1pz        0.000000  0.105868 -0.101131  0.000000 -0.208949  0.063978
  1O   1px        0.004263 -0.000000 -0.000000  0.716836  0.000000  0.000000
  1O   1py        0.000000 -0.081081 -0.219410 -0.000000  0.522720 -0.100300
  1O   2pz        0.000000  0.113049 -0.017648 -0.000000  0.306864 -0.665905
  1O   2px        0.157892 -0.000000  0.000000 -0.789385 -0.000000 -0.000000
  1O   2py       -0.000000  0.076200  0.331761  0.000000 -0.875132  0.316080
  1O   1dz2       0.000000  0.017052  0.006676  0.000000 -0.016787 -0.040916
  1O   1dxz       0.024349 -0.000000  0.000000 -0.007051 -0.000000  0.000000
  1O   1dyz      -0.000000 -0.010904 -0.002558  0.000000 -0.022201 -0.046918
  1O   1dx2y2     0.000000  0.027252  0.024448 -0.000000  0.015711 -0.012438
  1O   1dxy      -0.007674  0.000000 -0.000000  0.020777  0.000000 -0.000000
  2H   1s         0.000000  0.432254 -0.642913 -0.000000 -0.057136 -0.421078
  2H   2s        -0.000000  0.351310  1.980494 -0.000000  0.411258 -0.759302
  2H   1pz        0.000000 -0.016561 -0.114799 -0.000000  0.173042  0.129492
  2H   1px        0.026283 -0.000000  0.000000  0.162679  0.000000 -0.000000
  2H   1py        0.000000  0.038148 -0.220910  0.000000 -0.119856  0.037642
  3H   1s        -0.000000 -0.360368 -0.194969  0.000000 -0.397827  0.126447
  3H   2s         0.000000  0.571516  0.144012  0.000000 -0.127729 -0.303800
  3H   1pz       -0.000000 -0.009572  0.054582  0.000000  0.016892  0.272997
  3H   1px       -0.006461  0.000000 -0.000000 -0.092060 -0.000000 -0.000000
  3H   1py        0.000000  0.072543  0.093009  0.000000 -0.200652 -0.090847
  4H   1s        -0.269902  0.666831 -0.174468 -0.029569 -0.007496 -0.359948
  4H   2s         1.751072 -1.069714 -0.517278  0.050693  0.055327 -0.802013
  4H   1pz       -0.079187  0.016272  0.038075  0.186118 -0.118752  0.051192
  4H   1px       -0.140545  0.156938  0.007475 -0.013985  0.100950  0.096945
  4H   1py        0.090693 -0.073905  0.015529  0.109496  0.125622  0.029309
  5H   1s         0.269902  0.666831 -0.174468  0.029569 -0.007496 -0.359948
  5H   2s        -1.751072 -1.069713 -0.517278 -0.050693  0.055327 -0.802013
  5H   1pz        0.079187  0.016272  0.038075 -0.186118 -0.118752  0.051192
  5H   1px       -0.140545 -0.156937 -0.007475 -0.013985 -0.100950 -0.096945
  5H   1py       -0.090693 -0.073905  0.015529 -0.109496  0.125622  0.029309
                     24        25        26        27        28        29   
                   0.77722   0.82122   0.97523   1.09287   1.18776   1.21058
                   0.00000   0.00000   0.00000   0.00000   0.00000   0.00000
                  --------  --------  --------  --------  --------  --------
  0C   1s         0.263275 -0.000000  0.491512  0.000000  0.194316 -0.000000
  0C   2s         0.552950 -0.000000  1.005859  0.000000  0.403116 -0.000000
  0C   3s        -0.228779  0.000000 -2.540781 -0.000000 -0.515835  0.000000
  0C   1pz       -0.151664 -0.000000 -0.117318  0.000000 -0.149875  0.000000
  0C   1px        0.000000  0.133571  0.000000  0.000115  0.000000  0.012337
  0C   1py        0.169348 -0.000000 -0.059559 -0.000000 -0.004007  0.000000
  0C   2pz       -0.969582  0.000000  0.209309  0.000000 -0.315792  0.000000
  0C   2px       -0.000000 -0.707634 -0.000000  0.571150 -0.000000 -0.163228
  0C   2py       -0.404426  0.000000 -0.320131 -0.000000  0.387052 -0.000000
  0C   1dz2       0.332800  0.000000  0.013789 -0.000000  0.181463 -0.000000
  0C   1dxz       0.000000  0.550450 -0.000000 -0.072493 -0.000000 -0.020099
  0C   1dyz       0.039840  0.000000  0.492010  0.000000 -0.010186 -0.000000
  0C   1dx2y2     0.062813  0.000000  0.049843  0.000000 -0.179863  0.000000
  0C   1dxy       0.000000  0.155264  0.000000 -0.224065 -0.000000  0.026741
  1O   1s        -0.076736 -0.000000  0.015959  0.000000 -0.031834 -0.000000
  1O   2s        -0.244402 -0.000000  0.010288  0.000000 -0.076666 -0.000000
  1O   3s        -0.042520 -0.000000  0.036649 -0.000000  0.106654  0.000000
  1O   1pz        0.686305 -0.000000 -0.072399 -0.000000 -0.032623  0.000000
  1O   1px       -0.000000 -0.463207 -0.000000  0.234044  0.000000 -0.005799
  1O   1py        0.097304 -0.000000 -0.383352 -0.000000  0.230853 -0.000000
  1O   2pz       -1.581987 -0.000000  0.468303  0.000000 -0.567057  0.000000
  1O   2px        0.000000  0.815177  0.000000 -0.824474 -0.000000  0.014751
  1O   2py       -0.342597  0.000000  1.392757  0.000000 -0.624466 -0.000000
  1O   1dz2       0.038471 -0.000000  0.003521  0.000000  0.011315 -0.000000
  1O   1dxz      -0.000000 -0.105488  0.000000 -0.013445 -0.000000 -0.007150
  1O   1dyz      -0.002031 -0.000000 -0.091041 -0.000000 -0.105517  0.000000
  1O   1dx2y2    -0.011241 -0.000000 -0.096024 -0.000000 -0.008153  0.000000
  1O   1dxy      -0.000000 -0.014799  0.000000 -0.191418 -0.000000 -0.012703
  2H   1s         0.182929 -0.000000  0.265345  0.000000 -0.048181 -0.000000
  2H   2s         0.520817 -0.000000  0.368338  0.000000  0.012658 -0.000000
  2H   1pz        0.107296  0.000000  0.094557  0.000000 -0.372892  0.000000
  2H   1px        0.000000  0.125078 -0.000000  0.101423 -0.000000 -0.524882
  2H   1py       -0.092662  0.000000 -0.049567 -0.000000  0.192452 -0.000000
  3H   1s        -0.063313  0.000000  0.764122  0.000000 -0.406472 -0.000000
  3H   2s        -0.944038  0.000000  0.371921  0.000000 -0.096309 -0.000000
  3H   1pz       -0.156051  0.000000  0.370581  0.000000  0.565511 -0.000000
  3H   1px        0.000000  0.264605 -0.000000  0.928579  0.000000  0.048357
  3H   1py       -0.140788 -0.000000  0.042839  0.000000 -0.322713  0.000000
  4H   1s         0.050262  0.044412  0.332768 -0.185717  0.241779  0.066594
  4H   2s         0.222275  0.258330  0.285680 -0.219412  0.170082  0.044942
  4H   1pz       -0.013705  0.199411 -0.025757 -0.100789  0.347047 -0.034358
  4H   1px        0.006746 -0.041353  0.038317  0.028151 -0.040013  0.343586
  4H   1py        0.007993  0.095905  0.117632 -0.008064  0.148886  0.529572
  5H   1s         0.050262 -0.044412  0.332768  0.185717  0.241779 -0.066594
  5H   2s         0.222275 -0.258330  0.285680  0.219412  0.170082 -0.044942
  5H   1pz       -0.013705 -0.199411 -0.025757  0.100789  0.347047  0.034358
  5H   1px       -0.006746 -0.041353 -0.038317  0.028151  0.040013  0.343586
  5H   1py        0.007993 -0.095905  0.117632  0.008064  0.148886 -0.529572
                     30        31        32        33        34        35   
                   1.38594   1.41535   1.44558   1.44574   1.51138   1.64625
                   0.00000   0.00000   0.00000   0.00000   0.00000   0.00000
                  --------  --------  --------  --------  --------  --------
  0C   1s        -0.000000  0.017164  0.004086  0.000000 -0.231019  0.014637
  0C   2s        -0.000000 -0.001549  0.032762  0.000000 -0.419320  0.050132
  0C   3s         0.000000 -0.453108  0.199812  0.000000  2.207160  0.837550
  0C   1pz        0.000000  0.103834 -0.081197 -0.000000 -0.236887 -0.266234
  0C   1px        0.091661  0.000000  0.000000 -0.132235 -0.000000  0.000000
  0C   1py       -0.000000  0.066034  0.089796  0.000000 -0.019235  0.043473
  0C   2pz       -0.000000  0.828687 -0.891540 -0.000000 -0.610747  0.016272
  0C   2px       -1.199571 -0.000000 -0.000000  0.351163 -0.000000 -0.000000
  0C   2py       -0.000000 -0.912526 -0.774275 -0.000000 -0.492858  0.868634
  0C   1dz2      -0.000000 -0.678831  0.559360  0.000000  0.556688  0.108071
  0C   1dxz       0.170626 -0.000000 -0.000000  0.706048 -0.000000  0.000000
  0C   1dyz      -0.000000 -0.121217 -0.451095 -0.000000  0.201904 -0.585526
  0C   1dx2y2     0.000000  0.420963  0.539384  0.000000 -0.128413 -0.020721
  0C   1dxy       0.383858  0.000000  0.000000 -0.562797  0.000000  0.000000
  1O   1s        -0.000000 -0.127777  0.050810  0.000000  0.615648  0.294082
  1O   2s        -0.000000 -0.212545  0.042198  0.000000  1.300341  0.644471
  1O   3s         0.000000  1.201279 -0.819707 -0.000000 -2.935331 -1.043692
  1O   1pz       -0.000000  0.362316 -0.332141 -0.000000  0.064796  0.136477
  1O   1px       -0.055753 -0.000000 -0.000000  0.146399 -0.000000  0.000000
  1O   1py       -0.000000 -0.160693 -0.112586 -0.000000  0.112777 -0.005092
  1O   2pz        0.000000  0.134797 -0.068301 -0.000000 -0.741908 -0.932175
  1O   2px        0.392533 -0.000000 -0.000000  0.032415  0.000000  0.000000
  1O   2py        0.000000  0.249435  0.302346  0.000000  0.595308 -0.265682
  1O   1dz2      -0.000000 -0.040205  0.027806  0.000000  0.134486  0.066035
  1O   1dxz      -0.121746  0.000000  0.000000 -0.177513  0.000000 -0.000000
  1O   1dyz       0.000000 -0.016625  0.071833  0.000000 -0.011198  0.027000
  1O   1dx2y2     0.000000  0.032396  0.038418  0.000000 -0.162934 -0.072778
  1O   1dxy       0.041112 -0.000000 -0.000000  0.018696  0.000000  0.000000
  2H   1s         0.000000  0.391792  0.855839  0.000000 -0.133669 -0.114023
  2H   2s        -0.000000  0.158107  0.066157  0.000000  0.038358 -0.612021
  2H   1pz        0.000000 -0.373193  0.354768  0.000000 -0.385410  0.310421
  2H   1px        0.507332 -0.000000 -0.000000  0.030511  0.000000  0.000000
  2H   1py        0.000000  0.296490  0.219256  0.000000  0.154319 -0.043407
  3H   1s        -0.000000 -0.019819  0.177423  0.000000  0.598243 -0.046715
  3H   2s        -0.000000 -0.053218 -0.197880 -0.000000  0.040376  0.009935
  3H   1pz       -0.000000 -0.019303 -0.065064 -0.000000 -0.050351  0.683650
  3H   1px       -0.046620  0.000000  0.000000 -0.251324  0.000000  0.000000
  3H   1py        0.000000 -0.085080  0.015001  0.000000  0.356942 -0.294320
  4H   1s         0.430858 -0.430920 -0.160829 -0.553690 -0.169656 -0.055339
  4H   2s         0.321836 -0.057206  0.028764  0.188661 -0.307797  0.197111
  4H   1pz       -0.472022 -0.124657  0.182313 -0.406902 -0.092249 -0.461009
  4H   1px        0.377184 -0.029207 -0.050901 -0.099528  0.159516 -0.071606
  4H   1py       -0.035860  0.289377  0.144888  0.123176  0.280701 -0.181183
  5H   1s        -0.430858 -0.430920 -0.160830  0.553690 -0.169656 -0.055339
  5H   2s        -0.321836 -0.057206  0.028765 -0.188661 -0.307797  0.197111
  5H   1pz        0.472022 -0.124657  0.182313  0.406902 -0.092249 -0.461009
  5H   1px        0.377184  0.029207  0.050901 -0.099528 -0.159516  0.071606
  5H   1py        0.035860  0.289377  0.144888 -0.123176  0.280701 -0.181183
                     36        37        38        39        40        41   
                   1.75004   1.82540   1.87160   1.91811   2.17875   2.19918
                   0.00000   0.00000   0.00000   0.00000   0.00000   0.00000
                  --------  --------  --------  --------  --------  --------
  0C   1s        -0.023541  0.172356  0.000000  0.022092  0.000000  0.382299
  0C   2s        -0.033174  0.362507  0.000000  0.053047  0.000000  1.014954
  0C   3s         0.153661 -0.902705 -0.000000 -0.013881  0.000000  1.829686
  0C   1pz        0.202862  0.306742  0.000000  0.139383  0.000000  0.466584
  0C   1px        0.000000 -0.000000  0.147582  0.000000 -1.247959  0.000000
  0C   1py       -0.072365  0.022252 -0.000000 -0.245378 -0.000000 -0.473169
  0C   2pz        0.386761  0.910927  0.000000 -0.013232  0.000000  0.215786
  0C   2px       -0.000000 -0.000000  0.791493 -0.000000 -1.140903  0.000000
  0C   2py        0.053037 -0.068704 -0.000000 -0.643452  0.000000 -0.313816
  0C   1dz2       0.463760  0.443592  0.000000 -0.125308 -0.000000 -0.663340
  0C   1dxz       0.000000 -0.000000  0.504540 -0.000000 -0.614093  0.000000
  0C   1dyz       0.181581 -0.149960 -0.000000 -0.546322 -0.000000 -0.168049
  0C   1dx2y2     0.388266 -0.221799 -0.000000 -0.687031  0.000000  0.548541
  0C   1dxy      -0.000000 -0.000000  0.817976 -0.000000  1.109937 -0.000000
  1O   1s        -0.033398 -0.489273 -0.000000 -0.052852  0.000000  0.166353
  1O   2s        -0.029161 -1.108577 -0.000000 -0.062830  0.000000  0.357679
  1O   3s         0.735668  1.392930  0.000000  0.807541 -0.000000 -0.574955
  1O   1pz       -0.284620 -0.128328 -0.000000 -0.096365  0.000000  0.205718
  1O   1px        0.000000  0.000000  0.127031 -0.000000 -0.035596  0.000000
  1O   1py       -0.387628  0.264387  0.000000 -0.383005 -0.000000  0.039904
  1O   2pz        0.126508  0.570993  0.000000 -0.009482 -0.000000 -0.223935
  1O   2px        0.000000  0.000000 -0.267143 -0.000000  0.064285 -0.000000
  1O   2py       -0.034240 -0.016044  0.000000 -0.197959 -0.000000  0.130880
  1O   1dz2      -0.014480 -0.052306 -0.000000  0.022359  0.000000  0.045245
  1O   1dxz      -0.000000  0.000000 -0.174645  0.000000  0.143579 -0.000000
  1O   1dyz      -0.134394  0.063956  0.000000  0.112859 -0.000000  0.020500
  1O   1dx2y2     0.108756 -0.052069  0.000000  0.120448 -0.000000  0.000262
  1O   1dxy      -0.000000 -0.000000  0.114458 -0.000000  0.148870 -0.000000
  2H   1s         0.084123  0.015755  0.000000  0.091146 -0.000000 -0.202318
  2H   2s        -0.119252 -0.046013  0.000000  0.434089 -0.000000 -0.155489
  2H   1pz       -0.568786 -0.273665 -0.000000  0.255941  0.000000  0.153281
  2H   1px        0.000000  0.000000 -0.957594  0.000000 -0.004123 -0.000000
  2H   1py        0.183378  0.350614 -0.000000 -0.270615  0.000000  0.314335
  3H   1s        -0.173586 -0.015460 -0.000000 -0.409386  0.000000  0.103943
  3H   2s        -0.237982  0.335643  0.000000 -0.312794 -0.000000  0.095653
  3H   1pz       -0.326984  0.232983 -0.000000 -0.225635  0.000000  0.116146
  3H   1px       -0.000000 -0.000000  0.154750  0.000000  0.158498 -0.000000
  3H   1py       -0.782227  0.533784 -0.000000 -0.645148 -0.000000  0.118884
  4H   1s        -0.051809  0.112120 -0.043830 -0.103601  1.152940 -0.967762
  4H   2s        -0.074255 -0.103232 -0.397433 -0.213843  0.707322 -0.513185
  4H   1pz       -0.243133 -0.450658 -0.264070 -0.066408 -0.414772  0.434887
  4H   1px        0.049891  0.334228 -0.088249  0.541580 -0.930502  0.821788
  4H   1py       -0.363085  0.031656 -0.472844  0.473723  0.516219 -0.577687
  5H   1s        -0.051809  0.112120  0.043830 -0.103601 -1.152940 -0.967762
  5H   2s        -0.074255 -0.103232  0.397433 -0.213843 -0.707322 -0.513185
  5H   1pz       -0.243133 -0.450658  0.264070 -0.066408  0.414772  0.434887
  5H   1px       -0.049891 -0.334228 -0.088249 -0.541580 -0.930502 -0.821788
  5H   1py       -0.363085  0.031656  0.472844  0.473723 -0.516219 -0.577687
                     42        43        44        45        46        47   
                   2.22595   2.59546   2.68879   2.76266   2.89163   3.35478
                   0.00000   0.00000   0.00000   0.00000   0.00000   0.00000
                  --------  --------  --------  --------  --------  --------
  0C   1s        -0.137232 -0.000000  0.000000 -0.095035  0.024379  0.002287
  0C   2s        -0.364986 -0.000000  0.000000 -0.278233  0.151372  0.034731
  0C   3s        -0.601715 -0.000000 -0.000000 -0.717948  0.766310  0.069471
  0C   1pz       -0.350584  0.000000 -0.000000  0.434414 -0.446429 -0.119869
  0C   1px       -0.000000 -0.180596  0.219267  0.000000 -0.000000 -0.000000
  0C   1py       -1.139649  0.000000  0.000000 -0.204444 -0.020935 -0.026960
  0C   2pz       -0.216636  0.000000 -0.000000  0.279034 -0.518220 -0.202518
  0C   2px       -0.000000 -0.304072 -0.039352  0.000000 -0.000000 -0.000000
  0C   2py       -0.986287  0.000000 -0.000000 -0.134572 -0.111600  0.038179
  0C   1dz2       0.269847 -0.000000  0.000000 -0.416039  0.425536  0.179273
  0C   1dxz      -0.000000  0.176243  0.786327  0.000000  0.000000 -0.000000
  0C   1dyz      -0.662962  0.000000  0.000000 -0.509525 -0.487606  0.024803
  0C   1dx2y2     1.030317 -0.000000 -0.000000  0.170766 -0.040769  0.135495
  0C   1dxy       0.000000  0.402838 -0.149839 -0.000000  0.000000  0.000000
  1O   1s        -0.026769 -0.000000  0.000000 -0.277602  0.217667 -0.072850
  1O   2s        -0.087323 -0.000000  0.000000 -0.524917  0.403932 -0.079575
  1O   3s        -0.234336  0.000000 -0.000000  1.552720 -1.359513  1.139875
  1O   1pz       -0.011768  0.000000 -0.000000 -0.056151 -0.015280 -0.120429
  1O   1px        0.000000 -0.045704 -0.014551  0.000000 -0.000000 -0.000000
  1O   1py        0.095744  0.000000  0.000000 -0.054198  0.088260 -0.302858
  1O   2pz       -0.092071  0.000000 -0.000000  0.692005 -0.588008 -0.558000
  1O   2px       -0.000000  0.344870  0.203771  0.000000  0.000000  0.000000
  1O   2py        0.186318 -0.000000  0.000000 -0.527791 -0.060218 -1.003578
  1O   1dz2      -0.020623  0.000000 -0.000000  0.458909 -0.901430 -0.536476
  1O   1dxz       0.000000  0.146322  0.996076  0.000000  0.000000 -0.000000
  1O   1dyz       0.103214  0.000000  0.000000 -0.618405 -0.634459  0.673385
  1O   1dx2y2     0.109806 -0.000000  0.000000 -0.684582  0.009805 -0.917971
  1O   1dxy       0.000000 -1.003298  0.167698  0.000000 -0.000000 -0.000000
  2H   1s         1.534712 -0.000000 -0.000000  0.343459  0.186877  0.103529
  2H   2s         0.870728 -0.000000  0.000000  0.163829  0.061395  0.088488
  2H   1pz       -0.676459  0.000000 -0.000000  0.069950  0.107536 -0.141607
  2H   1px       -0.000000 -0.140955 -0.074569 -0.000000 -0.000000  0.000000
  2H   1py       -1.420796  0.000000  0.000000 -0.322222 -0.171978 -0.061867
  3H   1s         0.165634 -0.000000  0.000000 -0.506556  0.179009 -1.469852
  3H   2s        -0.008152 -0.000000  0.000000  0.000396 -0.125586 -0.377625
  3H   1pz        0.198792  0.000000  0.000000 -0.363218 -0.226312 -0.347609
  3H   1px        0.000000 -0.493161  0.148064  0.000000 -0.000000 -0.000000
  3H   1py        0.207425 -0.000000  0.000000 -0.117697  0.239634 -1.029541
  4H   1s        -0.328538  0.216926 -0.292925 -0.159152 -0.075788 -0.005283
  4H   2s        -0.198689  0.128697 -0.003248 -0.000952 -0.051709  0.039353
  4H   1pz        0.074621 -0.152729 -0.165510  0.032513 -0.052593  0.055715
  4H   1px        0.195848 -0.127498  0.247597  0.120405  0.107905 -0.027676
  4H   1py       -0.147739 -0.012889 -0.169393 -0.027954  0.053978 -0.055848
  5H   1s        -0.328538 -0.216926  0.292925 -0.159151 -0.075788 -0.005283
  5H   2s        -0.198689 -0.128697  0.003248 -0.000952 -0.051709  0.039353
  5H   1pz        0.074621  0.152729  0.165510  0.032513 -0.052593  0.055715
  5H   1px       -0.195848 -0.127498  0.247597 -0.120405 -0.107905  0.027676
[...]


                       ****Iteration    0****
   Time for iteration     :  TOTAL=0.1 TRAFO=0.0 RIJ=0.0 COSX=0.1 XC=0.0
   Size of expansion space: 18
   Lowest Energy          :     0.066747219943
   Maximum Energy change  :     0.407005784332 (vector 5)
   Maximum residual norm  :     0.050733786873

                       ****Iteration    1****
   Time for iteration     :  TOTAL=0.1 TRAFO=0.0 RIJ=0.0 COSX=0.0 XC=0.0
   Size of expansion space: 24
   Lowest Energy          :     0.063622496290
   Maximum Energy change  :     0.039446222713 (vector 2)
   Maximum residual norm  :     0.001716760362

                       ****Iteration    2****
   Time for iteration     :  TOTAL=0.1 TRAFO=0.0 RIJ=0.0 COSX=0.0 XC=0.0
   Size of expansion space: 30
   Lowest Energy          :     0.063576615431
   Maximum Energy change  :     0.001494086147 (vector 2)
   Maximum residual norm  :     0.000063464803

                       ****Iteration    3****
   Time for iteration     :  TOTAL=0.1 TRAFO=0.0 RIJ=0.0 COSX=0.0 XC=0.0
   Size of expansion space: 36
   Lowest Energy          :     0.063576214691
   Maximum Energy change  :     0.000087985678 (vector 4)
   Maximum residual norm  :     0.000014873566

                       ****Iteration    4****
   Time for iteration     :  TOTAL=0.1 TRAFO=0.0 RIJ=0.0 COSX=0.0 XC=0.0
   Size of expansion space: 42
   Lowest Energy          :     0.063576209700
   Maximum Energy change  :     0.000022434999 (vector 4)
   Maximum residual norm  :     0.000002344945

                       ****Iteration    5****
   Time for iteration     :  TOTAL=0.1 TRAFO=0.0 RIJ=0.0 COSX=0.0 XC=0.0
   Size of expansion space: 48
   Lowest Energy          :     0.063576209662
   Maximum Energy change  :     0.000003978055 (vector 4)
   Maximum residual norm  :     0.000000444374

                       ****Iteration    6****
   Time for iteration     :  TOTAL=0.1 TRAFO=0.0 RIJ=0.0 COSX=0.0 XC=0.0
   Size of expansion space: 54
   Lowest Energy          :     0.063576209662
   Maximum Energy change  :     0.000000569365 (vector 4)
   Maximum residual norm  :     0.000000045270

      *** CONVERGENCE OF RESIDUAL NORM REACHED ***

Storing the converged CI vectors               ... MeOH_i.cis2

                 *** DAVIDSON DONE ***

Total time for solving the CIS problem:     0.606sec

-------------------------
TD-DFT/TDA EXCITED STATES
-------------------------

the weight of the individual excitations are printed if larger than 1.0e-02

UHF/UKS reference: multiplicity estimated based on rounded <S**2> value, RELEVANCE IS LIMITED!

STATE  1:  E=   0.063576 au      1.730 eV    13953.4 cm**-1 <S**2> =   0.757605 Mult 2
     4b ->   8b  :     0.012980 (c= -0.11393031)
     5b ->   8b  :     0.048682 (c= -0.22064072)
     7b ->   8b  :     0.934164 (c= -0.96652151)

STATE  2:  E=   0.154379 au      4.201 eV    33882.2 cm**-1 <S**2> =   0.756960 Mult 2
     5b ->   8b  :     0.937971 (c= -0.96848914)
     7b ->   8b  :     0.051095 (c=  0.22604137)

STATE  3:  E=   0.194724 au      5.299 eV    42737.0 cm**-1 <S**2> =   0.758091 Mult 2
     6b ->   8b  :     0.954241 (c=  0.97685284)

STATE  4:  E=   0.244781 au      6.661 eV    53723.2 cm**-1 <S**2> =   0.758631 Mult 2
     3b ->   8b  :     0.030841 (c= -0.17561465)
     4b ->   8b  :     0.948055 (c=  0.97368129)
     7b ->   8b  :     0.011147 (c= -0.10557755)

STATE  5:  E=   0.388037 au     10.559 eV    85164.3 cm**-1 <S**2> =   2.723705 Mult 4
     8a ->   9a  :     0.344700 (c= -0.58711197)
     8a ->  11a  :     0.019523 (c= -0.13972641)
     5b ->   9b  :     0.010147 (c= -0.10073479)
     7b ->   9b  :     0.555995 (c= -0.74565059)
     7b ->  11b  :     0.019485 (c=  0.13958851)

STATE  6:  E=   0.399107 au     10.860 eV    87593.8 cm**-1 <S**2> =   0.845285 Mult 2
     5a ->   9a  :     0.017225 (c=  0.13124227)
     7a ->   9a  :     0.866211 (c= -0.93070475)
     7a ->  11a  :     0.017608 (c= -0.13269671)
     3b ->   8b  :     0.073045 (c= -0.27026780)

Storing amplitudes in GBW file ... 
... GBW file created

-----------------------------
TD-DFT/TDA-EXCITATION SPECTRA
-----------------------------

Center of mass = (  0.0000, -0.0000,  0.0000)
Generating CIS transition densities           ... done

UHF/UKS reference: multiplicity estimated based on rounded <S**2> value, use it judiciously!

----------------------------------------------------------------------------------------------------
                     ABSORPTION SPECTRUM VIA TRANSITION ELECTRIC DIPOLE MOMENTS    
----------------------------------------------------------------------------------------------------
     Transition      Energy     Energy  Wavelength fosc(D2)      D2        DX        DY        DZ   
                      (eV)      (cm-1)    (nm)                 (au**2)    (au)      (au)      (au)  
----------------------------------------------------------------------------------------------------
  0-2A  ->  1-2A    1.729997   13953.4   716.7   0.000383480   0.00905  -0.09512  -0.00000   0.00000
  0-2A  ->  2-2A    4.200853   33882.2   295.1   0.000466337   0.00453   0.06731   0.00000  -0.00000
  0-2A  ->  3-2A    5.298710   42737.0   234.0   0.120661420   0.92948   0.00000  -0.14832   0.95262
  0-2A  ->  4-2A    6.660823   53723.2   186.1   0.009564499   0.05861  -0.24210  -0.00000   0.00000
  0-2A  ->  5-4A   10.559031   85164.3   117.4   0.000069360   0.00027   0.00000  -0.01416   0.00822
  0-2A  ->  6-2A   10.860247   87593.8   114.2   0.000005562   0.00002   0.00457   0.00000   0.00000

----------------------------------------------------------------------------------------------------
                     ABSORPTION SPECTRUM VIA TRANSITION VELOCITY DIPOLE MOMENTS    
----------------------------------------------------------------------------------------------------
     Transition      Energy     Energy  Wavelength fosc(P2)      P2        PX        PY        PZ   
                      (eV)      (cm-1)    (nm)                 (au**2)    (au)      (au)      (au)  
----------------------------------------------------------------------------------------------------
  0-2A  ->  1-2A    1.729997   13953.4   716.7   0.000988079   0.00009  -0.00971  -0.00000  -0.00000
  0-2A  ->  2-2A    4.200853   33882.2   295.1   0.000084961   0.00002  -0.00444   0.00000   0.00000
  0-2A  ->  3-2A    5.298710   42737.0   234.0   0.003464738   0.00101  -0.00000  -0.03177   0.00165
  0-2A  ->  4-2A    6.660823   53723.2   186.1   0.000146114   0.00005  -0.00732  -0.00000   0.00000
  0-2A  ->  5-4A   10.559031   85164.3   117.4   0.000169783   0.00010  -0.00000   0.00967  -0.00233
  0-2A  ->  6-2A   10.860247   87593.8   114.2   0.001586883   0.00095  -0.03082  -0.00000  -0.00000

------------------------------------------------------------------------------------------
                     CD SPECTRUM VIA TRANSITION ELECTRIC DIPOLE MOMENTS    
------------------------------------------------------------------------------------------
     Transition      Energy     Energy  Wavelength    R        MX        MY        MZ   
                      (eV)      (cm-1)    (nm)   (1e40*cgs)   (au)      (au)      (au)  
------------------------------------------------------------------------------------------
  0-2A  ->  1-2A    1.729997   13953.4   716.7   -0.00001   0.00000   0.11978   0.39174
  0-2A  ->  2-2A    4.200853   33882.2   295.1   -0.00002   0.00000   0.39695   0.02159
  0-2A  ->  3-2A    5.298710   42737.0   234.0   -0.00004  -0.00323   0.00000   0.00000
  0-2A  ->  4-2A    6.660823   53723.2   186.1    0.00006  -0.00000   0.23325  -0.20583
  0-2A  ->  5-4A   10.559031   85164.3   117.4    0.00000   0.06291   0.00000  -0.00000
  0-2A  ->  6-2A   10.860247   87593.8   114.2    0.00000  -0.00000   0.38171  -0.06689

------------------------------------------------------------------------------------------
                     CD SPECTRUM VIA TRANSITION VELOCITY DIPOLE MOMENTS    
------------------------------------------------------------------------------------------
     Transition      Energy     Energy  Wavelength    R        MX        MY        MZ   
                      (eV)      (cm-1)    (nm)   (1e40*cgs)   (au)      (au)      (au)  
------------------------------------------------------------------------------------------
  0-2A  ->  1-2A    1.729997   13953.4   716.7   -0.00001   0.00000   0.11978   0.39174
  0-2A  ->  2-2A    4.200853   33882.2   295.1    0.00003   0.00000   0.39695   0.02159
  0-2A  ->  3-2A    5.298710   42737.0   234.0   -0.00001  -0.00323   0.00000   0.00000
  0-2A  ->  4-2A    6.660823   53723.2   186.1   -0.00001  -0.00000   0.23325  -0.20583
  0-2A  ->  5-4A   10.559031   85164.3   117.4    0.00000   0.06291   0.00000  -0.00000
  0-2A  ->  6-2A   10.860247   87593.8   114.2    0.00001  -0.00000   0.38171  -0.06689

Total run time:        0.658 sec

           *** ORCA-CIS/TD-DFT FINISHED WITHOUT ERROR ***
-----------------------
CIS/TD-DFT TOTAL ENERGY
-----------------------

    E(SCF)  =   -115.298848981 Eh
    DE(CIS) =      0.063576210 Eh (Root  1)
    ----------------------------- ---------
    E(tot)  =   -115.235272771 Eh


Maximum memory used throughout the entire CIS-calculation: 22.3 MB
=> NOW LEAVING ORCA_CIS


-------------------------------------------------------------------------------
                          DFT DISPERSION CORRECTION                            
                                                                               
                              DFTD3 V3.1  Rev 1                                
                              USING zero damping                               
-------------------------------------------------------------------------------
The omegaB97X-D3 functional is recognized. Fit by Chai et al.
Active option DFTDOPT                   ...         3   

molecular C6(AA) [au] = 208.790664 


            DFT-D V3
 parameters
 s6 scaling factor         :     1.0000 
 rs6 scaling factor        :     1.2810 
 s8 scaling factor         :     1.0000 
 rs8 scaling factor        :     1.0940 
 Damping factor alpha6     :    14.0000 
 Damping factor alpha8     :    16.0000 
 ad hoc parameters k1-k3   :    16.0000     1.3333    -4.0000 

 Edisp/kcal,au: -0.143304007343  -0.000228369448 
 E6   /kcal   :  -0.029252121 
 E8   /kcal   :  -0.114051887 
 % E8         :  79.587367226 

-------------------------   ----------------
Dispersion correction           -0.000228369
-------------------------   ----------------


-------------------------   --------------------
FINAL SINGLE POINT ENERGY      -115.235501140766
-------------------------   --------------------



           ************************************************************
           *        Program running with 4 parallel MPI-processes     *
           *              working on a common directory               *
           ************************************************************

------------------------------------------------------------------------------
                              ORCA PROPERTY CALCULATIONS
------------------------------------------------------------------------------

GBWName                                 ... MeOH_i.gbw
Number of atoms                         ...      6
Number of basis functions               ...     60
Max core memory                         ...   2000 MB

Electric properties:
Dipole moment                           ... YES
Quadrupole moment                       ...  NO
Static polarizability (Dipole/Dipole)   ...  NO
Static polarizability (Dipole/Quad.)    ...  NO
Static polarizability (Quad./Quad.)     ...  NO
Static polarizability (Velocity)        ...  NO
Static hyperpolarizability              ...  NO

Atomic electric properties:
Dipole moment                           ...  NO
Quadrupole moment                       ...  NO
Static polarizability                   ...  NO

Choice of electric origin               ... Center of mass
Position of electric origin             ...    -0.000000    -0.000005     0.000024

General magnetic properties:
Magnetizability                         ...  NO

EPR properties:
g-Tensor (aka g-matrix)                 ...  NO
Zero-Field splitting spin-orbit         ...  NO
Zero-field splitting spin-spin          ...  NO
Hyperfine couplings                     ...  NO (   0 nuclei)
Quadrupole couplings                    ...  NO (   0 nuclei)
Contact density                         ...  NO (   0 nuclei)

NMR properties:
Chemical shifts                         ...  NO (   0 nuclei)
Spin-rotation constants                 ...  NO (   0 nuclei)
Spin-spin couplings                     ...  NO (   0 nuclei,    0 pairs)

Choice of magnetic origin               ... GIAO
Position of magnetic origin             ...     0.000000     0.000000     0.000000

Properties with geometric perturbations:
SCF Hessian                             ...  NO
IR spectrum                             ...  NO
VCD spectrum                            ...  NO
X-ray spectroscopy properties:
SCF XES/XAS/RIXS spectra                ...  NO

SCF SOC stabilization energy            ...  NO
Diagonal Born-Oppenheimer correction    ...  NO

-------------
DIPOLE MOMENT
-------------

Method             : SCF
Type of density    : Electron Density
Multiplicity       :   2
Irrep              :   0
Energy             :  -115.2988489809797841 Eh
Basis              : AO
                                X                 Y                 Z
Electronic contribution:     -0.000000001       0.059758931      -1.763437324
Nuclear contribution   :      0.000000000      -0.870097616       2.118422598
                        -----------------------------------------
Total Dipole Moment    :     -0.000000001      -0.810338685       0.354985274
                        -----------------------------------------
Magnitude (a.u.)       :      0.884682615
Magnitude (Debye)      :      2.248684502



--------------------
Rotational spectrum 
--------------------
 
Rotational constants in cm-1:             4.075243             0.847901             0.816681 
Rotational constants in MHz :        122172.700873         25419.439230         24483.491755 

Dipole components along the rotational axes: 
x,y,z [a.u.] :     0.354981    -0.810340     0.000000 
x,y,z [Debye]:     0.902291    -2.059722     0.000000 

 

Dipole moment calculation done in   0.0 sec 

Maximum memory used throughout the entire PROP-calculation: 4.0 MB

--------------------------------
SUGGESTED CITATIONS FOR THIS RUN
--------------------------------

Below you find a list of papers that are relevant to this ORCA run
We neither can nor want to force you to cite these papers, but we appreciate if you do
You receive ORCA, which is the product of decades of hard work by many enthusiastic individuals, for free
The only thing we kindly ask in return is that you cite our papers,
We deeply appreciate it, if you show your appreciation for ORCA by not just citing the generic ORCA reference.

Please note that relegating all ORCA citations to the supporting information does *not* help us.
SI sections are not indexed - citations you put there will not count into any citation statistics
But we need these citations in order to attract the funding resources that allow us to do what we are doing

Therefore, if you are a happy ORCA user, please consider citing a few of the papers listed below in the main body of your paper

In addition to the list printed below, the program has created the file MeOH_i.bibtex that contains the list in bibtex format
You can import this file easily into all common literature databanks and citation aid programs


List of essential papers. We consider these as the minimum necessary citations

  1. Neese, F.
     Software update: the ORCA program system, version 6.0
     WIRES Comput. Molec. Sci. 2025 15(1), e70019
     doi.org/10.1002/wcms.7019

List of papers to cite with high priority. The work reported in these papers was absolutely
necessary for this run to complete.
Our perspective: the developers of density functionals and basis sets usually get cited in chemistry papers
Good! But without the algorithms to do something with them, the functionals or basis sets would not do anything.
Hence, in our opinion, the algorithm design and method developments papers are equally worthy of getting cited

  1. Neese, F.; Olbrich, G.
     Efficient use of the resolution of the identity approximation in time-dependent density functional calculations with hybrid density functionals
     Chem. Phys. Lett. 2002 362 , 170-178
     doi.org/10.1016/s0009-2614(02)01053-9
  2. Neese, F.
     An improvement of the resolution of the identity approximation for the formation of the Coulomb matrix
     J. Comp. Chem. 2003 24(14), 1740-1747
     doi.org/10.1002/jcc.10318
  3. Neese, F.; Wennmohs, F.; Hansen, A.; Becker, U.
     Efficient, approximate and parallel Hartree-Fock and hybrid DFT calculations. A 'chain-of-spheres' algorithm for the Hartree-Fock exchange
     Chem. Phys. 2009 356(1-3), 98-109
     doi.org/10.1016/j.chemphys.2008.10.036
  4. Grimme, S.; Antony, J.; Ehrlich, S.; Krieg, H.
     A consistent and accurate ab initio parametrization of density functional dispersion correction (DFT-D) for the 94 elements H-Pu
     J. Chem. Phys. 2010 132 , 154104
     doi.org/10.1063/1.3382344
  5. Helmich-Paris, B.; de Souza, B.; Neese, F.; Izsák, R.
     An improved chain of spheres for exchange algorithm
     J. Chem. Phys. 2021 155(10), 104109
     doi.org/10.1063/5.0058766
  6. Neese, F.
     The SHARK Integral Generation and Digestion System
     J. Comp. Chem. 2022 44(3), 381
     doi.org/10.1002/jcc.26942

List of suggested additional citations. These are papers that are important in the 'surrounding' of 
of this run, or papers that preceded the highly important papers. If you like your results we are grateful for a citation.

  1. Izsak, R.; Neese, F.
     An overlap fitted chain of spheres exchange method
     J. Chem. Phys. 2011 135 , 144105
     doi.org/10.1063/1.3646921
  2. Izsak, R.; Hansen, A.; Neese, F.
     The resolution of identity and chain of spheres approximations for the LPNO-CCSD singles Fock term
     Molec. Phys. 2012 110 , 2413-2417
     doi.org/10.1080/00268976.2012.687466
  3. Neese, F.
     The ORCA program system
     WIRES Comput. Molec. Sci. 2012 2(1), 73-78
     doi.org/10.1002/wcms.81
  4. Izsak, R.; Neese, F.; Klopper, W.
     Robust fitting techniques in the chain of spheres approximation to the Fock exchange: The role of the complementary space
     J. Chem. Phys. 2013 139 , 
     doi.org/10.1063/1.4819264
  5. Neese, F.
     Software update: the ORCA program system, version 4.0
     WIRES Comput. Molec. Sci. 2018 8(1), 1-6
     doi.org/10.1002/wcms.1327
  6. Neese, F.; Wennmohs, F.; Becker, U.; Riplinger, C.
     The ORCA quantum chemistry program package
     J. Chem. Phys. 2020 152(22), 224108
     doi.org/10.1063/5.0004608
  7. Neese, F.
     Software update: The ORCA program system—Version 5.0
     WIRES Comput. Molec. Sci. 2022 12(1), e1606
     doi.org/10.1002/wcms.1606

List of optional additional citations

  1. Neese, F.
     Approximate second-order SCF convergence for spin unrestricted wavefunctions
     Chem. Phys. Lett. 2000 325(1-3), 93-98
     doi.org/10.1016/s0009-2614(00)00662-x

Timings for individual modules:

Sum of individual times          ...        3.579 sec (=   0.060 min)
Startup calculation              ...        0.760 sec (=   0.013 min)  21.2 %
SCF iterations                   ...        1.055 sec (=   0.018 min)  29.5 %
Property integrals               ...        0.378 sec (=   0.006 min)  10.6 %
Property calculations            ...        0.380 sec (=   0.006 min)  10.6 %
CIS module                       ...        1.007 sec (=   0.017 min)  28.1 %
                             ****ORCA TERMINATED NORMALLY****
TOTAL RUN TIME: 0 days 0 hours 0 minutes 3 seconds 991 msec
