TDDFT Dyson orbitals
SP        U                             ORCA-Molden
Number of atoms                            I                6
Charge                                     I                0
Multiplicity                               I                1
Number of electrons                        I               18
Number of alpha electrons                  I                9
Number of beta electrons                   I                9
Atomic numbers                             I   N=           6
           6           8           1           1           1           1
Current cartesian coordinates              R   N=          18
  0.00000000E+00 -2.78298078E-02  1.35229029E+00  0.00000000E+00  1.31435177E-01
 -1.28528570E+00  0.00000000E+00  1.91103147E+00  2.14986621E+00  0.00000000E+00
 -1.63748379E+00 -1.90778455E+00  1.72932391E+00 -1.01411888E+00  2.02265930E+00
 -1.72932391E+00 -1.01411888E+00  2.02265930E+00
Nuclear charges                            R   N=           6
  6.00000000E+00  8.00000000E+00  1.00000000E+00  1.00000000E+00  1.00000000E+00
  1.00000000E+00
Number of basis functions                  I               48
Number of contracted shells                I               24
Number of primitive shells                 I               64
Highest angular momentum                   I                2
Largest degree of contraction              I                8
Shell types                                I   N=          24
           0           0           0           1           1          -2
           0           0           0           1           1          -2
           0           0           1           0           0           1
           0           0           1           0           0           1
Number of primitives per shell             I   N=          24
           8           8           1           3           1           1
           8           8           1           3           1           1
           3           1           1           3           1           1
           3           1           1           3           1           1
Shell to atom map                          I   N=          24
           1           1           1           1           1           1
           2           2           2           2           2           2
           3           3           3           4           4           4
           5           5           5           6           6           6
Primitive exponents                        R   N=          64
  6.66500000E+03  1.00000000E+03  2.28000000E+02  6.47100000E+01  2.10600000E+01
  7.49500000E+00  2.79700000E+00  5.21500000E-01  6.66500000E+03  1.00000000E+03
  2.28000000E+02  6.47100000E+01  2.10600000E+01  7.49500000E+00  2.79700000E+00
  5.21500000E-01  1.59600000E-01  9.43900000E+00  2.00200000E+00  5.45600000E-01
  1.51700000E-01  5.50000000E-01  1.17200000E+04  1.75900000E+03  4.00800000E+02
  1.13700000E+02  3.70300000E+01  1.32700000E+01  5.02500000E+00  1.01300000E+00
  1.17200000E+04  1.75900000E+03  4.00800000E+02  1.13700000E+02  3.70300000E+01
  1.32700000E+01  5.02500000E+00  1.01300000E+00  3.02300000E-01  1.77000000E+01
  3.85400000E+00  1.04600000E+00  2.75300000E-01  1.18500000E+00  1.30100000E+01
  1.96200000E+00  4.44600000E-01  1.22000000E-01  7.27000000E-01  1.30100000E+01
  1.96200000E+00  4.44600000E-01  1.22000000E-01  7.27000000E-01  1.30100000E+01
  1.96200000E+00  4.44600000E-01  1.22000000E-01  7.27000000E-01  1.30100000E+01
  1.96200000E+00  4.44600000E-01  1.22000000E-01  7.27000000E-01
Contraction coefficients                   R   N=          64
  3.63584300E-01  6.74985793E-01  1.13161994E+00  1.65300921E+00  1.92382064E+00
  1.44727832E+00  4.39163129E-01  6.64580370E-03 -1.54179748E-01 -2.93785374E-01
 -4.80895804E-01 -7.61434316E-01 -9.00103892E-01 -9.72611352E-01 -3.94041946E-01
  4.78394425E-01  1.79963635E-01  1.34373711E+00  1.06316809E+00  5.08231834E-01
  1.34949744E-01  1.00139355E+00  5.69701716E-01  1.05835210E+00  1.77628106E+00
  2.59941189E+00  3.02684600E+00  2.22239433E+00  6.47795431E-01  1.11186960E-02
 -2.52434263E-01 -4.80491091E-01 -7.86299661E-01 -1.25416990E+00 -1.49121792E+00
 -1.61083178E+00 -5.49798375E-01  7.88282208E-01  2.90561924E-01  3.24361935E+00
  2.56727965E+00  1.11766932E+00  2.84248284E-01  3.83687099E+00  1.63548423E-01
  2.77417542E-01  3.15749307E-01  1.47122794E-01  9.56881375E-01  1.63548423E-01
  2.77417542E-01  3.15749307E-01  1.47122794E-01  9.56881375E-01  1.63548423E-01
  2.77417542E-01  3.15749307E-01  1.47122794E-01  9.56881375E-01  1.63548423E-01
  2.77417542E-01  3.15749307E-01  1.47122794E-01  9.56881375E-01
Coordinates of each shell                  R   N=          72
  0.00000000E+00 -2.78298078E-02  1.35229029E+00  0.00000000E+00 -2.78298078E-02
  1.35229029E+00  0.00000000E+00 -2.78298078E-02  1.35229029E+00  0.00000000E+00
 -2.78298078E-02  1.35229029E+00  0.00000000E+00 -2.78298078E-02  1.35229029E+00
  0.00000000E+00 -2.78298078E-02  1.35229029E+00  0.00000000E+00  1.31435177E-01
 -1.28528570E+00  0.00000000E+00  1.31435177E-01 -1.28528570E+00  0.00000000E+00
  1.31435177E-01 -1.28528570E+00  0.00000000E+00  1.31435177E-01 -1.28528570E+00
  0.00000000E+00  1.31435177E-01 -1.28528570E+00  0.00000000E+00  1.31435177E-01
 -1.28528570E+00  0.00000000E+00  1.91103147E+00  2.14986621E+00  0.00000000E+00
  1.91103147E+00  2.14986621E+00  0.00000000E+00  1.91103147E+00  2.14986621E+00
  0.00000000E+00 -1.63748379E+00 -1.90778455E+00  0.00000000E+00 -1.63748379E+00
 -1.90778455E+00  0.00000000E+00 -1.63748379E+00 -1.90778455E+00  1.72932391E+00
 -1.01411888E+00  2.02265930E+00  1.72932391E+00 -1.01411888E+00  2.02265930E+00
  1.72932391E+00 -1.01411888E+00  2.02265930E+00 -1.72932391E+00 -1.01411888E+00
  2.02265930E+00 -1.72932391E+00 -1.01411888E+00  2.02265930E+00 -1.72932391E+00
 -1.01411888E+00  2.02265930E+00
Overlap Matrix                             R   N=        1176
  1.00000000E+00 -2.15699512E-01  1.00000000E+00  1.90140308E-01  7.18331821E-01
  1.00000000E+00  4.48829990E-14 -1.74719974E-13 -2.99307070E-13  1.00000000E+00
  9.45512402E-13 -1.44805429E-12 -1.38831794E-12  6.29984698E-14  1.00000000E+00
 -1.06830500E-13 -5.40782240E-13 -5.05555629E-13  4.85411864E-13  2.72125081E-13
  1.00000000E+00  1.33235123E-13  7.88406022E-13  8.83752162E-13  5.30759475E-01
  1.96433731E-13  4.18306636E-13  1.00000000E+00  1.22505166E-12 -9.99981182E-13
 -7.11106497E-13  2.29643087E-13  5.30759475E-01  3.10300849E-13  3.24325826E-13
  1.00000000E+00  4.25562784E-13 -2.30325695E-13 -2.78984954E-14  8.92346144E-13
  4.38607518E-13  5.30759475E-01  5.90438348E-13  1.72597490E-13  1.00000000E+00
  3.72744152E-13  4.30517448E-13  1.05794236E-12 -5.56437368E-15 -4.24265858E-13
 -3.29826815E-13  9.15791914E-13 -1.80890520E-13  1.37633870E-13  1.00000000E+00
  7.16075206E-13  2.46133220E-13  2.54480573E-13  1.04947036E-13  6.79309945E-14
  9.27523648E-13 -2.02005276E-13  8.45758902E-14  8.17305684E-13 -3.75021394E-14
  1.00000000E+00 -4.06984785E-13 -7.28758448E-14 -1.54232514E-13  3.93378776E-13
  3.06212578E-13  1.50505349E-12  1.08135977E-12  4.81144099E-13  1.05764578E-12
  3.77203605E-13  8.21824205E-14  1.00000000E+00  2.58228095E-13 -5.48706772E-13
 -1.97772849E-13 -9.08233661E-14  9.32471548E-14 -5.65679666E-14  2.72764503E-13
 -6.56193675E-14 -4.32963333E-13 -1.65526158E-13 -4.91309039E-13  7.75146841E-14
  1.00000000E+00  7.29156738E-13  3.54687441E-13  6.62622341E-13  7.17260555E-13
  6.52569819E-13 -7.63457606E-14  1.24268002E-12  5.14956549E-13  3.94361787E-13
  2.21184193E-13  4.91831043E-14 -3.33369530E-13  2.71443433E-13  1.00000000E+00
  1.80646897E-04  1.08747881E-02  4.22618468E-02  4.11978490E-14  1.43607198E-03
 -2.37826851E-02 -3.94091372E-13  5.18113859E-03 -8.58044646E-02  6.24411362E-02
 -7.79756337E-13 -6.54243195E-03 -1.97526124E-04  1.00439693E-13  1.00000000E+00
  3.34080209E-03  9.09416152E-02  2.08262212E-01 -2.29301331E-13  9.44186563E-03
 -1.56366060E-01  2.76856175E-13  2.23627548E-02 -3.70347978E-01  2.70697373E-01
 -1.78180147E-13 -2.83630192E-02 -8.56323348E-04 -2.60587069E-13 -2.14062652E-01
  1.00000000E+00  4.19323093E-02  2.43045711E-01  4.47290776E-01 -6.13065857E-13
  1.70646467E-02 -2.82606391E-01  1.87549917E-13  3.73901653E-02 -6.19215846E-01
  2.66004487E-01 -6.07871074E-13 -2.78713099E-02 -8.41477885E-04 -1.74712581E-13
  1.94384152E-01  7.08607329E-01  1.00000000E+00 -8.45193358E-14 -4.39803590E-13
 -8.40621675E-13  4.54449158E-02 -1.70381987E-13 -3.01028595E-13  1.17222214E-01
 -3.98410608E-14 -4.88369449E-13 -1.17162243E-13 -1.49594843E-01 -1.29084290E-13
 -1.01418905E-13  9.03299864E-03 -5.74607144E-14  3.97533309E-14 -2.83862764E-13
  1.00000000E+00 -4.15698185E-04 -7.41666705E-03 -7.49918405E-03 -3.18105217E-13
  4.45693098E-02  1.45008484E-02 -3.39871473E-13  1.16426657E-01  1.31751584E-02
 -3.21809268E-02 -6.42202625E-13 -1.46769439E-01 -8.94769534E-03 -2.21168002E-13
  9.51481498E-13 -2.25209089E-13  5.51909532E-13  2.75549481E-13  1.00000000E+00
  6.88434784E-03  1.22826891E-01  1.24193449E-01 -1.12836926E-13  1.45008484E-02
 -1.94702595E-01  7.09999882E-13  1.31751584E-02 -1.00970640E-01  2.73840154E-01
 -1.69394929E-13 -3.77583064E-02 -1.41270176E-03 -1.75428710E-13  6.74448572E-13
 -8.09638713E-13 -4.66233429E-13  4.46923986E-13 -7.59969359E-14  1.00000000E+00
  6.19795186E-14 -6.02188006E-13 -6.70549214E-13  2.04007789E-01 -3.31464381E-13
 -4.30879784E-13  4.52811171E-01  1.11614122E-13 -2.25073541E-13  1.35685749E-13
 -3.12995349E-01 -6.12353642E-13  2.47474899E-14  1.88996259E-02  9.09245415E-14
 -7.51806912E-14 -3.51504169E-13  5.01271483E-01  5.92976064E-13  6.98806754E-13
  1.00000000E+00 -7.09294248E-03 -2.65103319E-02 -2.86703089E-02 -7.25219688E-13
  2.02052277E-01  3.23850807E-02 -9.98502078E-13  4.50564437E-01  3.72080004E-02
 -3.87150541E-02  2.69007009E-13 -3.10082181E-01 -1.88116728E-02  4.39356669E-13
  7.46835925E-13 -8.18766352E-13  2.99863633E-13  3.85493166E-13  5.01271483E-01
 -1.44083439E-13  3.92062788E-13  1.00000000E+00  1.17465712E-01  4.39035705E-01
  4.74806931E-01  4.19970741E-15  3.23850807E-02 -3.32319211E-01  4.98197165E-13
  3.72080004E-02 -1.63387855E-01  9.90333875E-02  3.28207208E-13 -2.93451420E-02
 -1.45658405E-03  4.59455473E-13  1.26682671E-12 -3.89127436E-13  3.08310026E-13
 -3.11739615E-14  2.58222374E-14  5.01271483E-01  5.92319546E-14 -3.44517533E-13
  1.00000000E+00  1.23864411E-02  1.28468833E-01  5.21698760E-02 -3.00463555E-13
  2.05069212E-02 -1.83407136E-01 -3.56025283E-13  8.16607165E-03  6.23693238E-03
  1.74834291E-01 -5.62945883E-13 -4.33713352E-02 -2.24097494E-03  5.08894067E-13
  3.57872342E-13  8.41196473E-13  7.51632587E-13  5.73355673E-13  1.34508714E-13
  7.87034186E-15  5.96210166E-13  6.44173868E-13 -1.58736284E-13  1.00000000E+00
 -6.86456567E-13 -3.25500998E-14 -1.24894824E-13  9.01858739E-02 -2.97294914E-14
 -1.07449455E-13  8.16804327E-02 -2.22445598E-13  1.04415605E-13 -6.86251632E-13
 -2.38565012E-01  2.24876542E-13 -9.30765550E-14  1.78135163E-02  8.37075061E-14
  3.46992647E-14 -8.57319529E-14  3.38212711E-13 -4.26452068E-13 -2.75802102E-13
  8.03872175E-13 -5.85456557E-13 -2.92467797E-13 -6.98142059E-13  1.00000000E+00
 -1.29782148E-03 -1.34606552E-02 -5.46623403E-03 -1.99659696E-13  8.83666369E-02
  2.46825517E-02 -1.77479558E-13  8.11231718E-02  4.29664196E-03 -4.33713352E-02
 -2.66089426E-13 -2.34018704E-01 -1.76437812E-02  8.18703923E-14 -9.52806847E-14
  3.50279271E-13  4.79253047E-13 -7.97778156E-13 -6.27813356E-14 -1.57856509E-13
 -7.45349171E-13 -4.53178690E-13 -9.32834203E-13  2.79499690E-13  6.73960337E-13
  1.00000000E+00 -3.91832345E-05 -4.06397966E-04 -1.65034046E-04  6.50740388E-13
  5.39077604E-03  9.09618495E-04  7.76961783E-13  4.91529224E-03  2.78630479E-04
 -2.24097494E-03  7.41284745E-13 -1.76437812E-02  5.53728437E-02  7.84900452E-13
  6.69486971E-13  2.12465165E-13  5.56933057E-13  1.08241710E-13  4.47905310E-13
 -2.40534022E-14 -7.05712340E-14  3.75456086E-13  4.34010694E-13 -3.84695239E-13
  1.31858259E-13 -1.47062441E-13  1.00000000E+00  1.76636031E-13 -7.03975832E-13
 -9.43863989E-13 -5.44570161E-03 -7.17525992E-14  2.42436243E-13 -4.93211680E-03
  3.03298694E-13 -7.87634237E-14 -7.16210974E-13  1.78135163E-02  1.36779872E-13
 -9.30225022E-14  5.53677191E-02 -3.74260562E-13  9.64888319E-14 -4.21599246E-13
  2.46825019E-13 -1.03274655E-12 -9.85276194E-13  2.72297102E-13 -8.28030890E-13
 -1.04220724E-12 -3.82800272E-14 -1.98827361E-13  9.25711804E-13  7.00499054E-13
  1.00000000E+00  5.36029023E-02  3.03060652E-01  4.50808034E-01 -6.07859541E-14
  3.55037734E-01  1.46049411E-01  4.49431687E-13  5.21392399E-01  2.14481576E-01
 -1.13360314E-01  6.15303156E-13  2.44178352E-01 -2.96791779E-01  3.81028825E-13
  4.66918782E-04  7.45943153E-03  5.62231508E-02 -2.97714299E-13  5.63179766E-03
  1.08710501E-02 -6.25793947E-13  7.62688661E-02  1.47221672E-01  1.13087730E-02
  3.25415526E-14  1.17200431E-02 -3.03581120E-03  3.57384635E-13  1.00000000E+00
  9.44335685E-02  4.25337449E-01  7.28035762E-01  3.30836716E-14  1.93930656E-01
  7.97759095E-02  8.84881733E-13  4.95702052E-01  2.03913516E-01 -2.27199605E-02
  4.91685749E-13  4.89388425E-02 -5.94837583E-02  7.73982306E-13  1.72916521E-02
  9.27463033E-02  2.34493576E-01 -9.85243705E-13  2.88162624E-02  5.56239857E-02
 -6.06606242E-13  1.43377330E-01  2.76761033E-01  2.06486485E-02 -8.82383363E-14
  2.13995851E-02 -5.54307689E-03 -5.48215256E-13  6.84860251E-01  1.00000000E+00
  5.93014856E-13 -1.30679882E-13  7.04725966E-14  2.10974691E-01 -3.15651808E-14
  1.44907986E-13  2.86115865E-01 -1.31303891E-13  1.91380253E-13 -2.40667956E-13
  1.65997061E-01 -7.75214187E-14  9.57588435E-13  4.03529326E-01  1.06001553E-13
 -3.63226580E-13 -4.11594806E-13  1.17546973E-03  5.47103637E-14 -1.28796462E-13
  3.79117996E-02  2.15231204E-13  2.41104971E-13 -1.47628664E-13  3.11169099E-03
 -1.17520620E-13  5.07638178E-13  1.61202587E-03 -4.95379988E-13  8.72787856E-14
  1.00000000E+00 -9.00164496E-02 -3.25044167E-01 -2.25536012E-01 -2.39264895E-13
 -3.21745944E-01 -2.19141594E-01 -9.18740213E-13  1.61276693E-02 -1.11063172E-01
 -5.15582702E-02 -4.62032221E-13 -2.24780910E-01  7.14500810E-02 -2.97591202E-13
 -9.22573269E-05 -3.32695924E-03 -3.17199190E-02  6.67642467E-13 -2.03677641E-03
 -6.20059363E-03  7.75775524E-13 -1.00383840E-02 -9.25581634E-02 -9.49951521E-03
  2.65285144E-13 -5.76874560E-03  6.88249700E-04  8.36971490E-13 -4.55968276E-14
  2.99529733E-13 -8.02219928E-14  1.00000000E+00 -3.70294428E-02 -1.33711165E-01
 -9.27771853E-02  1.93607951E-14 -2.19141594E-01  1.20827933E-01  4.29359685E-13
 -1.11063172E-01  2.40428578E-01  2.66306175E-01 -1.66413226E-13  2.42777702E-01
  1.95388985E-01  1.74506760E-13 -1.78084172E-04 -6.42202415E-03 -6.12289095E-02
 -3.02244964E-13 -6.20059363E-03 -1.07935263E-02 -2.47337898E-13 -9.25581634E-02
 -1.40753077E-01 -1.29472923E-02  1.76119282E-13 -1.55298668E-02  4.44021829E-03
 -4.21345022E-13  4.71501244E-13  6.88598742E-13  6.97350039E-14 -6.30793578E-13
  1.00000000E+00  1.92549387E-03  3.68371521E-02  1.55855775E-01  4.54346811E-13
 -2.77934003E-02 -5.62907096E-02  1.11317798E-12 -1.54974990E-01 -3.13874950E-01
  7.85507857E-02 -4.49294463E-13  7.65013045E-02 -1.88861660E-02 -6.69914197E-13
  4.85716909E-02  2.55301192E-01  4.74697276E-01 -6.34633095E-13 -2.51172986E-01
 -8.83900824E-02 -5.92265243E-13 -5.82259840E-01 -2.04902590E-01 -7.43109753E-02
  3.91959571E-13  1.20412529E-01 -1.71084661E-01  2.71428671E-13  1.04380188E-03
  4.03341071E-02 -2.42741885E-13 -5.89845350E-04 -6.74475451E-04  1.00000000E+00
  3.36038522E-02  1.82132570E-01  3.95532141E-01 -6.58906426E-13 -6.59432162E-02
 -1.33556542E-01  2.94182538E-13 -2.26611437E-01 -4.58962144E-01  7.06538428E-02
 -8.03338474E-13  6.88104020E-02 -1.69874839E-02 -2.51188989E-13  6.77252926E-02
  3.17065211E-01  6.34432498E-01 -7.48599219E-13 -1.01047278E-01 -3.55594659E-02
 -6.82848720E-13 -3.75202974E-01 -1.32037375E-01 -8.44179196E-03  2.85459446E-13
  1.36789689E-02 -1.94353675E-02 -3.93065570E-13  4.03341071E-02  1.69916880E-01
 -2.29448672E-13 -2.45527913E-02 -2.80755879E-02  6.84860251E-01  1.00000000E+00
  8.58708420E-14 -6.29707362E-13 -8.17512752E-13  1.22377979E-02 -5.67243126E-13
 -3.66824148E-13  9.45306066E-02 -3.58584174E-13  2.86640363E-13  1.58691456E-13
 -4.28210999E-02 -8.57101221E-13  7.25908540E-14 -2.11428134E-02  4.00947878E-13
 -6.85862081E-13 -8.93036396E-13  1.75652609E-01  1.12431814E-12  5.22062313E-13
  3.73072407E-01  9.78496119E-13  2.45290234E-13  6.18522951E-13 -9.81447137E-02
 -9.62878875E-13 -4.49140791E-13 -2.78892158E-01 -1.08697667E-12 -7.22083399E-13
  2.58801525E-05  5.64030943E-13  2.40372540E-13 -1.33492391E-12 -1.34227818E-12
  1.00000000E+00  6.20082001E-04  2.19278024E-02  5.90056816E-02 -5.97197682E-13
 -7.76009929E-03 -4.05022708E-02 -6.83705109E-13  3.30487658E-02 -1.24520800E-01
  8.35480674E-02 -3.60025076E-13  2.66587822E-02  3.99005241E-03 -1.25299403E-13
  9.25961962E-02  3.60224186E-01  3.63516738E-01 -4.65142536E-13 -3.16945454E-01
 -1.73349786E-01 -5.58445319E-13 -9.31379242E-02 -1.64063701E-01 -9.77016223E-03
  2.36325371E-13  1.78598932E-01 -1.14311050E-01  1.16135147E-12  5.89845349E-04
  2.45527913E-02 -5.82024756E-13 -2.11035959E-04 -2.70908469E-04  1.24863852E-13
  1.81634598E-13 -7.62342187E-13  1.00000000E+00  1.25586850E-03  4.44109588E-02
  1.19505770E-01  2.69422822E-13 -4.05022708E-02 -6.97925238E-02  3.20972810E-13
 -1.24520800E-01 -1.57664668E-01  9.50437929E-02  3.76563185E-13  1.19576632E-01
 -3.47399411E-02 -3.11506269E-13  3.25854525E-02  1.26766202E-01  1.27924881E-01
  4.16981411E-13 -1.73349786E-01  1.14649226E-01  1.26295501E-13 -1.64063701E-01
  3.15336882E-01 -1.73429841E-01  2.98299780E-13 -1.81503525E-01 -1.38371823E-01
 -6.00416896E-13  6.74475453E-04  2.80755879E-02 -1.58702008E-14 -2.70908469E-04
 -2.83897846E-04  7.46594913E-13  3.95365369E-13  2.29956776E-13 -1.11468840E-13
  1.00000000E+00  5.32325193E-02  3.01809395E-01  4.49861320E-01  3.15087002E-01
 -1.79704256E-01  1.22142855E-01  4.64099653E-01 -2.64690967E-01  1.79907316E-01
 -1.38984435E-01  1.82130230E-01 -1.03874731E-01  1.58503486E-01 -2.67961458E-01
  4.18541050E-04  6.85172960E-03  5.34205784E-02  5.01139967E-03 -3.31969575E-03
  9.58607833E-03  7.05864726E-02 -4.67585163E-02  1.35021651E-01  8.89060240E-03
  1.00203890E-02 -6.63779484E-03  1.46987715E-03 -3.47009921E-03  5.46809096E-02
  2.21199090E-01  3.67679873E-02 -6.21930285E-02 -2.70460739E-03  1.03622747E-02
  1.08995414E-01  4.85026432E-03  1.74836220E-03  1.10237830E-02  1.00000000E+00
  9.42410055E-02  4.24628268E-01  7.27159795E-01  1.72667431E-01 -9.84777923E-02
  6.69341895E-02  4.41610109E-01 -2.51864456E-01  1.71189289E-01 -2.79482280E-02
  3.66243687E-02 -2.08880560E-02  3.18732926E-02 -5.38840763E-02  1.67279482E-02
  9.00153314E-02  2.28892712E-01  2.71580858E-02 -1.79902997E-02  5.19494662E-02
  1.36089401E-01 -9.01495464E-02  2.60319221E-01  1.72289406E-02  1.94183341E-02
 -1.28632648E-02  2.84844884E-03 -6.72464368E-03  2.21199090E-01  4.93931670E-01
  7.44051122E-02 -1.25856203E-01 -5.47314745E-03  1.08995414E-01  3.17118562E-01
  3.48353775E-02  1.25570182E-02  7.91745804E-02  6.84860251E-01  1.00000000E+00
 -7.94471032E-02 -2.88695738E-01 -2.00703942E-01 -2.11475375E-01  2.40235385E-01
 -1.63285147E-01  7.11751315E-02  1.22231403E-01 -8.30792374E-02 -8.35812742E-03
 -1.21111099E-01  1.48214727E-01  1.31799741E-01  1.78186271E-01 -7.72676696E-05
 -2.87583588E-03 -2.90467017E-02 -1.64702388E-03  1.78166581E-03 -5.14480521E-03
 -6.96951465E-03  2.83739559E-02 -8.19337025E-02 -7.11879569E-03 -4.48060929E-03
  4.71923926E-03  3.36953689E-04  1.55165221E-03 -3.67679873E-02 -7.44051122E-02
 -1.75499148E-02  5.49686190E-02  2.39043727E-03 -4.85026432E-03 -3.48353775E-02
 -1.25167292E-03 -8.35458387E-04 -5.26773684E-03  7.31411515E-13  1.47098862E-12
  1.00000000E+00  4.53112396E-02  1.64652470E-01  1.14467917E-01  2.40235385E-01
  7.27307671E-02  9.31267737E-02  1.22231403E-01  2.15778789E-01  4.73827626E-02
  4.76690903E-03  1.48214727E-01  5.42316621E-02  3.33144939E-01  1.39899233E-01
  5.11843341E-05  1.90503667E-03  1.92413734E-02  1.78166581E-03 -1.37655013E-04
  3.40806743E-03  2.83739559E-02  1.70679706E-02  5.42752488E-02  4.71569569E-03
  4.71923926E-03 -4.82624495E-04  1.60772534E-03 -2.52305912E-04  6.21930285E-02
  1.25856203E-01  5.49686190E-02 -7.80323227E-02 -4.04342320E-03 -1.74836220E-03
 -1.25570182E-02 -8.35458389E-04  7.64880107E-04 -1.89884744E-03  6.44780415E-13
  9.74174359E-13 -9.96837187E-13  1.00000000E+00 -3.07975131E-02 -1.11912334E-01
 -7.78024877E-02 -1.63285147E-01  9.31267737E-02  1.46447572E-01 -8.30792374E-02
  4.73827626E-02  2.53285789E-01  2.37105057E-01  2.57222273E-01 -1.46702139E-01
 -8.76713803E-02  1.48214727E-01 -1.47801809E-04 -5.50105556E-03 -5.55621137E-02
 -5.14480521E-03  3.40806743E-03 -8.79869189E-03 -8.19337025E-02  5.42752488E-02
 -1.20863552E-01 -9.03848199E-03 -1.22454680E-02  8.11175139E-03 -1.99899240E-03
  4.71923926E-03  2.70460739E-03  5.47314745E-03  2.39043727E-03 -4.04342320E-03
  1.47712257E-02 -1.10237830E-02 -7.91745804E-02 -5.26773684E-03 -1.89884743E-03
 -1.09065877E-02  4.43910740E-13  4.02582863E-13 -4.32870202E-13 -5.72805870E-17
  1.00000000E+00  5.32325193E-02  3.01809395E-01  4.49861320E-01 -3.15087002E-01
 -1.79704256E-01  1.22142855E-01 -4.64099653E-01 -2.64690967E-01  1.79907316E-01
 -1.38984435E-01 -1.82130230E-01 -1.03874731E-01  1.58503486E-01  2.67961458E-01
  4.18541050E-04  6.85172959E-03  5.34205784E-02 -5.01139967E-03 -3.31969575E-03
  9.58607833E-03 -7.05864726E-02 -4.67585163E-02  1.35021651E-01  8.89060240E-03
 -1.00203890E-02 -6.63779484E-03  1.46987715E-03  3.47009921E-03  5.46809096E-02
  2.21199090E-01 -3.67679873E-02 -6.21930285E-02 -2.70460739E-03  1.03622747E-02
  1.08995414E-01 -4.85026432E-03  1.74836220E-03  1.10237830E-02  4.98369712E-02
  2.12756242E-01 -6.57096294E-02 -5.47345950E-14 -1.35789644E-13  1.00000000E+00
  9.42410055E-02  4.24628268E-01  7.27159795E-01 -1.72667431E-01 -9.84777923E-02
  6.69341895E-02 -4.41610109E-01 -2.51864456E-01  1.71189289E-01 -2.79482280E-02
 -3.66243687E-02 -2.08880560E-02  3.18732926E-02  5.38840763E-02  1.67279482E-02
  9.00153314E-02  2.28892712E-01 -2.71580858E-02 -1.79902997E-02  5.19494662E-02
 -1.36089401E-01 -9.01495464E-02  2.60319221E-01  1.72289406E-02 -1.94183341E-02
 -1.28632648E-02  2.84844884E-03  6.72464368E-03  2.21199090E-01  4.93931670E-01
 -7.44051122E-02 -1.25856203E-01 -5.47314745E-03  1.08995414E-01  3.17118562E-01
 -3.48353775E-02  1.25570182E-02  7.91745804E-02  2.12756242E-01  4.82055064E-01
 -1.42734900E-01  8.87441959E-13 -1.28340675E-13  6.84860251E-01  1.00000000E+00
  7.94471032E-02  2.88695738E-01  2.00703942E-01 -2.11475375E-01 -2.40235385E-01
  1.63285147E-01  7.11751315E-02 -1.22231403E-01  8.30792374E-02  8.35812742E-03
 -1.21111099E-01 -1.48214727E-01 -1.31799741E-01  1.78186271E-01  7.72676698E-05
  2.87583588E-03  2.90467017E-02 -1.64702388E-03 -1.78166581E-03  5.14480521E-03
 -6.96951465E-03 -2.83739559E-02  8.19337025E-02  7.11879569E-03 -4.48060929E-03
 -4.71923926E-03 -3.36953689E-04  1.55165221E-03  3.67679873E-02  7.44051122E-02
 -1.75499148E-02 -5.49686190E-02 -2.39043727E-03  4.85026432E-03  3.48353775E-02
 -1.25167292E-03  8.35458387E-04  5.26773684E-03  6.57096294E-02  1.42734900E-01
 -9.95093624E-02  3.79560024E-13  8.22421622E-14 -1.05655217E-13  5.17095650E-13
  1.00000000E+00  4.53112396E-02  1.64652470E-01  1.14467917E-01 -2.40235385E-01
  7.27307671E-02  9.31267737E-02 -1.22231403E-01  2.15778789E-01  4.73827626E-02
  4.76690903E-03 -1.48214727E-01  5.42316621E-02  3.33144939E-01 -1.39899233E-01
  5.11843340E-05  1.90503667E-03  1.92413734E-02 -1.78166581E-03 -1.37655012E-04
  3.40806743E-03 -2.83739559E-02  1.70679706E-02  5.42752488E-02  4.71569569E-03
 -4.71923926E-03 -4.82624495E-04  1.60772534E-03  2.52305912E-04  6.21930285E-02
  1.25856203E-01 -5.49686190E-02 -7.80323227E-02 -4.04342320E-03 -1.74836220E-03
 -1.25570182E-02  8.35458387E-04  7.64880107E-04 -1.89884744E-03 -3.43822208E-13
 -2.82152144E-13  5.02235780E-13  1.29290835E-02 -7.36022069E-13 -4.64426743E-13
 -3.52688326E-13 -5.58223807E-13  1.00000000E+00 -3.07975131E-02 -1.11912334E-01
 -7.78024877E-02  1.63285147E-01  9.31267737E-02  1.46447572E-01  8.30792374E-02
  4.73827626E-02  2.53285789E-01  2.37105057E-01 -2.57222273E-01 -1.46702139E-01
 -8.76713803E-02 -1.48214727E-01 -1.47801808E-04 -5.50105556E-03 -5.55621137E-02
  5.14480521E-03  3.40806743E-03 -8.79869189E-03  8.19337025E-02  5.42752488E-02
 -1.20863552E-01 -9.03848199E-03  1.22454680E-02  8.11175139E-03 -1.99899240E-03
 -4.71923926E-03  2.70460739E-03  5.47314745E-03 -2.39043727E-03 -4.04342320E-03
  1.47712257E-02 -1.10237830E-02 -7.91745804E-02  5.26773684E-03 -1.89884743E-03
 -1.09065877E-02  4.99184229E-13  8.63292270E-13  4.78121497E-13  6.67448843E-13
  1.29290835E-02  1.31646262E-12  1.35681954E-12 -3.05345386E-13  2.12554049E-13
  1.00000000E+00
Number of independent functions            I               48
Ref - EOM-IP 1/A (alpha)                   R    3.896589062745761E-01
Dyson Orbital (left)                       R   N=          48
  2.48456222E-10  4.78180162E-10 -2.95598959E-09 -2.03288639E-01  2.93650752E-10
  2.82133493E-10 -4.16354266E-02 -4.65759951E-09 -4.66748240E-09 -2.92668555E-10
 -3.84232742E-02  9.55525729E-11 -1.71159035E-09  1.10439339E-02  1.71361951E-10
  9.73850379E-10  5.66231297E-10  5.53076226E-01 -2.62752562E-10 -9.54443273E-11
  4.29700265E-01 -8.09344820E-10 -1.05233244E-09 -3.93186731E-11  4.94226959E-03
  1.90686385E-10  1.27269500E-10 -1.22753108E-02 -6.64564969E-10  3.11165333E-09
 -9.00240086E-03 -2.98766379E-10  5.70855468E-10 -1.46832413E-09 -4.76136891E-09
  2.85031239E-02  1.78079282E-10 -4.92271517E-10 -2.15542178E-01 -1.36124057E-01
  2.85379490E-03 -6.01779420E-03  1.92329699E-03  2.15542179E-01  1.36124059E-01
  2.85379418E-03  6.01780295E-03 -1.92329123E-03
Dyson Orbital (right)                      R   N=          48
  2.48456222E-10  4.78180162E-10 -2.95598959E-09 -2.03288639E-01  2.93650752E-10
  2.82133493E-10 -4.16354266E-02 -4.65759951E-09 -4.66748240E-09 -2.92668555E-10
 -3.84232742E-02  9.55525729E-11 -1.71159035E-09  1.10439339E-02  1.71361951E-10
  9.73850379E-10  5.66231297E-10  5.53076226E-01 -2.62752562E-10 -9.54443273E-11
  4.29700265E-01 -8.09344820E-10 -1.05233244E-09 -3.93186731E-11  4.94226959E-03
  1.90686385E-10  1.27269500E-10 -1.22753108E-02 -6.64564969E-10  3.11165333E-09
 -9.00240086E-03 -2.98766379E-10  5.70855468E-10 -1.46832413E-09 -4.76136891E-09
  2.85031239E-02  1.78079282E-10 -4.92271517E-10 -2.15542178E-01 -1.36124057E-01
  2.85379490E-03 -6.01779420E-03  1.92329699E-03  2.15542179E-01  1.36124059E-01
  2.85379418E-03  6.01780295E-03 -1.92329123E-03
Ref - EOM-IP 2/A (alpha)                   R    4.532352336384592E-01
Dyson Orbital (left)                       R   N=          48
 -3.85479470E-03 -2.82715200E-02  1.45179806E-02 -4.66390582E-11 -3.16554956E-01
  8.44304678E-02 -1.06051274E-09 -9.84928257E-02 -3.02081839E-03 -6.38388607E-03
 -1.71975801E-09 -2.90464841E-02  1.27137272E-02  3.55285584E-12 -2.85286199E-03
  1.05291966E-01  2.20416816E-01 -8.25328513E-10  3.50393338E-01 -1.63600506E-01
 -4.48162395E-10  2.26313417E-01 -1.44568712E-01  6.12689221E-04 -1.95803875E-10
  1.34541634E-03  1.08243485E-02  6.82841299E-11 -2.82126846E-01 -1.37777882E-01
  3.17807629E-10  6.65833130E-03  9.09212314E-03 -2.06633731E-01 -6.23322545E-02
 -3.08510035E-10 -6.90359575E-03 -1.39189282E-02  1.63023917E-01  9.89886070E-02
 -1.05330985E-02 -6.83594726E-03 -5.83802958E-05  1.63023914E-01  9.89886077E-02
  1.05330978E-02 -6.83595248E-03 -5.83842483E-05
Dyson Orbital (right)                      R   N=          48
 -3.85479470E-03 -2.82715200E-02  1.45179806E-02 -4.66390582E-11 -3.16554956E-01
  8.44304678E-02 -1.06051274E-09 -9.84928257E-02 -3.02081839E-03 -6.38388607E-03
 -1.71975801E-09 -2.90464841E-02  1.27137272E-02  3.55285584E-12 -2.85286199E-03
  1.05291966E-01  2.20416816E-01 -8.25328513E-10  3.50393338E-01 -1.63600506E-01
 -4.48162395E-10  2.26313417E-01 -1.44568712E-01  6.12689221E-04 -1.95803875E-10
  1.34541634E-03  1.08243485E-02  6.82841299E-11 -2.82126846E-01 -1.37777882E-01
  3.17807629E-10  6.65833130E-03  9.09212314E-03 -2.06633731E-01 -6.23322545E-02
 -3.08510035E-10 -6.90359575E-03 -1.39189282E-02  1.63023917E-01  9.89886070E-02
 -1.05330985E-02 -6.83594726E-03 -5.83802958E-05  1.63023914E-01  9.89886077E-02
  1.05330978E-02 -6.83595248E-03 -5.83842483E-05
Ref - EOM-IP 3/A (alpha)                   R    5.440428087345027E-01
Dyson Orbital (left)                       R   N=          48
 -5.16630543E-03  2.79729122E-02  2.29122225E-02  1.39431362E-10  2.40632364E-01
  2.95250073E-01 -8.12563428E-11  1.26686675E-01  1.05082640E-01 -2.53394221E-02
 -7.33567927E-10 -5.48527323E-03 -6.10340478E-03 -3.54795776E-10 -4.12718000E-03
  6.63497662E-02  1.46888582E-01  1.98873558E-10  1.69253355E-01 -3.47259957E-01
  5.40061696E-10  1.18135430E-01 -2.06427237E-01 -6.16833800E-03 -2.30211713E-10
  1.77665704E-02  2.78733773E-03 -1.97062486E-11  2.78092162E-01  8.57313293E-02
  3.51396747E-10 -1.67912330E-02 -7.82452620E-04  1.58808818E-02  3.97916955E-02
 -1.04073636E-10  8.34252205E-03 -1.97704580E-02  5.69444346E-03  8.79501513E-03
 -8.26087631E-04  7.01461448E-03  6.58578471E-03  5.69444228E-03  8.79501899E-03
  8.26087721E-04  7.01461176E-03  6.58578204E-03
Dyson Orbital (right)                      R   N=          48
 -5.16630543E-03  2.79729122E-02  2.29122225E-02  1.39431362E-10  2.40632364E-01
  2.95250073E-01 -8.12563428E-11  1.26686675E-01  1.05082640E-01 -2.53394221E-02
 -7.33567927E-10 -5.48527323E-03 -6.10340478E-03 -3.54795776E-10 -4.12718000E-03
  6.63497662E-02  1.46888582E-01  1.98873558E-10  1.69253355E-01 -3.47259957E-01
  5.40061696E-10  1.18135430E-01 -2.06427237E-01 -6.16833800E-03 -2.30211713E-10