[Molden Format]
[Title]
 TDDFT/TDA Dyson orbitals

[Atoms] AU
C       1     6        0.0000000000       -0.0278298078        1.3522902891
O       2     8        0.0000000000        0.1314351769       -1.2852857027
H       3     1        0.0000000000        1.9110314733        2.1498662115
H       4     1        0.0000000000       -1.6374837888       -1.9077845458
H       5     1        1.7293239120       -1.0141188842        2.0226592968
H       6     1       -1.7293239120       -1.0141188842        2.0226592968
[GTO]
   1 0
s    8 1.0
     6665.0000000000        0.3635842998
     1000.0000000000        0.6749857928
      228.0000000000        1.1316199410
       64.7100000000        1.6530092121
       21.0600000000        1.9238206437
        7.4950000000        1.4472783162
        2.7970000000        0.4391631292
        0.5215000000        0.0066458037
s    8 1.0
     6665.0000000000       -0.1541797483
     1000.0000000000       -0.2937853735
      228.0000000000       -0.4808958038
       64.7100000000       -0.7614343161
       21.0600000000       -0.9001038923
        7.4950000000       -0.9726113518
        2.7970000000       -0.3940419460
        0.5215000000        0.4783944249
s    1 1.0
        0.1596000000        0.1799636353
p    3 1.0
        9.4390000000        1.3437371095
        2.0020000000        1.0631680879
        0.5456000000        0.5082318338
p    1 1.0
        0.1517000000        0.1349497436
d    1 1.0
        0.5500000000        1.0013935509

   2 0
s    8 1.0
    11720.0000000000        0.5697017158
     1759.0000000000        1.0583521000
      400.8000000000        1.7762810558
      113.7000000000        2.5994118899
       37.0300000000        3.0268459958
       13.2700000000        2.2223943344
        5.0250000000        0.6477954310
        1.0130000000        0.0111186960
s    8 1.0
    11720.0000000000       -0.2524342625
     1759.0000000000       -0.4804910908
      400.8000000000       -0.7862996613
      113.7000000000       -1.2541699039
       37.0300000000       -1.4912179216
       13.2700000000       -1.6108317779
        5.0250000000       -0.5497983753
        1.0130000000        0.7882822080
s    1 1.0
        0.3023000000        0.2905619240
p    3 1.0
       17.7000000000        3.2436193456
        3.8540000000        2.5672796523
        1.0460000000        1.1176693232
p    1 1.0
        0.2753000000        0.2842482844
d    1 1.0
        1.1850000000        3.8368709885

   3 0
s    3 1.0
       13.0100000000        0.1635484228
        1.9620000000        0.2774175417
        0.4446000000        0.3157493070
s    1 1.0
        0.1220000000        0.1471227944
p    1 1.0
        0.7270000000        0.9568813751

   4 0
s    3 1.0
       13.0100000000        0.1635484228
        1.9620000000        0.2774175417
        0.4446000000        0.3157493070
s    1 1.0
        0.1220000000        0.1471227944
p    1 1.0
        0.7270000000        0.9568813751

   5 0
s    3 1.0
       13.0100000000        0.1635484228
        1.9620000000        0.2774175417
        0.4446000000        0.3157493070
s    1 1.0
        0.1220000000        0.1471227944
p    1 1.0
        0.7270000000        0.9568813751

   6 0
s    3 1.0
       13.0100000000        0.1635484228
        1.9620000000        0.2774175417
        0.4446000000        0.3157493070
s    1 1.0
        0.1220000000        0.1471227944
p    1 1.0
        0.7270000000        0.9568813751

[5D]
[MO]
 Sym= Dyson_0
 Ene=  3.896589062746E-01
 Spin= Beta
 Occup= 0.954193
    1      0.000000000248
    2      0.000000000478
    3     -0.000000002956
    4     -0.203288638845
    5      0.000000000294
    6      0.000000000282
    7     -0.041635426577
    8     -0.000000004658
    9     -0.000000004667
   10     -0.000000000293
   11     -0.038423274242
   12      0.000000000096
   13     -0.000000001712
   14      0.011043933894
   15      0.000000000171
   16      0.000000000974
   17      0.000000000566
   18      0.553076226374
   19     -0.000000000263
   20     -0.000000000095
   21      0.429700265365
   22     -0.000000000809
   23     -0.000000001052
   24     -0.000000000039
   25      0.004942269594
   26      0.000000000191
   27      0.000000000127
   28     -0.012275310832
   29     -0.000000000665
   30      0.000000003112
   31     -0.009002400863
   32     -0.000000000299
   33      0.000000000571
   34     -0.000000001468
   35     -0.000000004761
   36      0.028503123918
   37      0.000000000178
   38     -0.000000000492
   39     -0.215542178088
   40     -0.136124056735
   41      0.002853794904
   42     -0.006017794200
   43      0.001923296987
   44      0.215542179355
   45      0.136124058627
   46      0.002853794183
   47      0.006017802946
   48     -0.001923291226
 Sym= Dyson_1
 Ene=  4.532352336385E-01
 Spin= Beta
 Occup= 0.954974
    1     -0.003854794697
    2     -0.028271520006
    3      0.014517980636
    4     -0.000000000047
    5     -0.316554955526
    6      0.084430467815
    7     -0.000000001061
    8     -0.098492825732
    9     -0.003020818387
   10     -0.006383886074
   11     -0.000000001720
   12     -0.029046484125
   13      0.012713727170
   14      0.000000000004
   15     -0.002852861988
   16      0.105291965645
   17      0.220416815769
   18     -0.000000000825
   19      0.350393337943
   20     -0.163600506057
   21     -0.000000000448
   22      0.226313417405
   23     -0.144568712119
   24      0.000612689221
   25     -0.000000000196
   26      0.001345416337
   27      0.010824348461
   28      0.000000000068
   29     -0.282126845773
   30     -0.137777882109
   31      0.000000000318
   32      0.006658331296
   33      0.009092123139
   34     -0.206633730610
   35     -0.062332254456
   36     -0.000000000309
   37     -0.006903595752
   38     -0.013918928247
   39      0.163023917229
   40      0.098988607024
   41     -0.010533098482
   42     -0.006835947255
   43     -0.000058380296
   44      0.163023913991
   45      0.098988607664
   46      0.010533097824
   47     -0.006835952481
   48     -0.000058384248
 Sym= Dyson_2
 Ene=  5.440428087345E-01
 Spin= Beta
 Occup= 0.946572
    1     -0.005166305434
    2      0.027972912185
    3      0.022912222459
    4      0.000000000139
    5      0.240632364278
    6      0.295250073115
    7     -0.000000000081
    8      0.126686675207
    9      0.105082639904
   10     -0.025339422077
   11     -0.000000000734
   12     -0.005485273234
   13     -0.006103404780
   14     -0.000000000355
   15     -0.004127179999
   16      0.066349766222
   17      0.146888582246
   18      0.000000000199
   19      0.169253355003
   20     -0.347259957468
   21      0.000000000540
   22      0.118135429814
   23     -0.206427236509
   24     -0.006168338005
   25     -0.000000000230
   26      0.017766570393
   27      0.002787337734
   28     -0.000000000020
   29      0.278092161531
   30      0.085731329318
   31      0.000000000351
   32     -0.016791233018
   33     -0.000782452620
   34      0.015880881806
   35      0.039791695525
   36     -0.000000000104
   37      0.008342522047
   38     -0.019770458050
   39      0.005694443464
   40      0.008795015126
   41     -0.000826087631
   42      0.007014614479
   43      0.006585784710
   44      0.005694442275
   45      0.008795018988
   46      0.000826087721
   47      0.007014611759
   48      0.006585782037
 Sym= Dyson_3
 Ene=  5.843935644834E-01
 Spin= Beta
 Occup= 0.912283
    1      0.000000000070
    2      0.000000000427
    3      0.000000003179
    4     -0.380390786564
    5     -0.000000000745
    6      0.000000000177
    7     -0.153606938413
    8      0.000000000676
    9      0.000000002297
   10      0.000000000114
   11      0.010687919478
   12      0.000000000343
   13      0.000000000776
   14      0.012224461315
   15     -0.000000000220
   16     -0.000000000398
   17      0.000000001280
   18     -0.284179932301
   19      0.000000000156
   20     -0.000000000076
   21     -0.188396609859
   22     -0.000000000732
   23     -0.000000000810
   24     -0.000000000073
   25     -0.013141199409
   26     -0.000000000050
   27     -0.000000000184
   28      0.007845970594
   29     -0.000000000580
   30     -0.000000000664
   31     -0.012519364198
   32     -0.000000000278
   33     -0.000000000039
   34     -0.000000000079
   35      0.000000000462
   36     -0.014325513388
   37      0.000000000005
   38     -0.000000000152
   39     -0.239454198641
   40     -0.089268680391
   41      0.006227570140
   42     -0.009790370747
   43      0.005865678980
   44      0.239454197903
   45      0.089268676287
   46      0.006227570419
   47      0.009790366886
   48     -0.005865681922
 Sym= Dyson_4
 Ene=  6.344461412866E-01
 Spin= Beta
 Occup= 0.948062
    1     -0.003989897518
    2      0.045054925715
    3      0.031389166419
    4      0.000000000325
    5     -0.198260494208
    6      0.206107313824
    7      0.000000002320
    8     -0.095493880950
    9      0.079360819639
   10     -0.022225672817
   11      0.000000001563
   12      0.022065356846
   13      0.003844804895
   14      0.000000000287
   15     -0.000882156138
   16     -0.088801995569
   17     -0.153605989336
   18     -0.000000000040
   19     -0.349758178308
   20     -0.220345718962
   21      0.000000000037
   22     -0.167395544983
   23     -0.083347432046
   24     -0.012282269835
   25      0.000000000289
   26     -0.003004415943
   27     -0.010214520191
   28     -0.000000000254
   29     -0.033469936527
   30      0.000243369958
   31     -0.000000000421
   32      0.000109159432
   33      0.004512468389
   34      0.293689487538
   35      0.081601780213
   36      0.000000000118
   37      0.024986339541
   38      0.011243726388
   39      0.140613547730
   40      0.034610211966
   41     -0.011201588778
   42      0.000765592345
   43      0.000758274771
   44      0.140613549272
   45      0.034610213347
   46      0.011201588583
   47      0.000765595709
   48      0.000758278168
 Sym= Dyson_5
 Ene=  7.776949991273E-01
 Spin= Beta
 Occup= 0.000006
    1     -0.000000000011
    2     -0.000000000050
    3      0.000000000059
    4      0.000510396866
    5     -0.000000000942
    6      0.000000000201
    7      0.000104534082
    8     -0.000000000306
    9      0.000000000000
   10     -0.000000000015
   11      0.000096469330
   12     -0.000000000068
   13      0.000000000040
   14     -0.000027728009
   15     -0.000000000007
   16      0.000000000219
   17      0.000000000477
   18     -0.001388608700
   19      0.000000000763
   20     -0.000000000384
   21     -0.001078848626
   22      0.000000000507
   23     -0.000000000335
   24      0.000000000000
   25     -0.000012408558
   26     -0.000000000003
   27      0.000000000024
   28      0.000030819628
   29     -0.000000000804
   30     -0.000000000386
   31      0.000022602331
   32      0.000000000021
   33      0.000000000023
   34     -0.000000000457
   35     -0.000000000138
   36     -0.000071562804
   37     -0.000000000014
   38     -0.000000000026
   39      0.000541162302
   40      0.000341766988
   41     -0.000007165055
   42      0.000015108859
   43     -0.000004828824
   44     -0.000541161364
   45     -0.000341766462
   46     -0.000007164991
   47     -0.000015108919
   48      0.000004828806
 Sym= Dyson_6
 Ene=  7.887565451022E-01
 Spin= Beta
 Occup= 0.069776
    1      0.003351457717
    2     -0.091666727297
    3     -0.056001033668
    4      0.000000000031
    5     -0.005724917392
    6      0.006089206834
    7      0.000000000556
    8      0.000365707218
    9     -0.000158723851
   10     -0.001918125669
   11     -0.000000000083
   12      0.002089810543
   13      0.000401172439
   14     -0.000000000031
   15      0.000587392553
   16      0.032585091905
   17      0.031146674161
   18      0.000000000215
   19     -0.035171825644
   20     -0.069654975177
   21      0.000000000115
   22     -0.008884399678
   23     -0.035947542710
   24     -0.003836131949
   25      0.000000000003
   26      0.001680340384
   27     -0.001361713506
   28     -0.000000000010
   29     -0.041567048803
   30     -0.005706143423
   31      0.000000000075
   32      0.005109110410
   33      0.001757273230
   34      0.056942402750
   35      0.012521060131
   36      0.000000000064
   37      0.007225089872
   38      0.000902630509
   39     -0.039009783810
   40     -0.005315763505
   41      0.004035665986
   42     -0.002591393831
   43      0.001543525376
   44     -0.039009783474
   45     -0.005315762584
   46     -0.004035665973
   47     -0.002591393991
   48      0.001543525252
